
 Working directory              : /scratch/emmanous/h2.CCSDt.anopVTZ.com.48681/molpro.PQQCTf8tT6/
 Global scratch directory       : /scratch/emmanous/h2.CCSDt.anopVTZ.com.48681/molpro.PQQCTf8tT6/
 Wavefunction directory         : /home/emmanous/wfu/
 Main file repository           : /scratch/emmanous/h2.CCSDt.anopVTZ.com.48681/molpro.PQQCTf8tT6/

 id        : wis

 Nodes     nprocs
 cff147       8
 GA implementation: MPI file
 GA implementation (serial work in mppx): MPI file

 Using DEFAULT tuning parameter for ncache   :   16384
 Using DEFAULT tuning parameter for mflopdgm :   10000
 Using DEFAULT tuning parameter for mflopdgv :    4000
 Using DEFAULT tuning parameter for mflopmxm :    5000
 Using DEFAULT tuning parameter for mflopmxv :    4000
 Using DEFAULT tuning parameter for mindgm   :       1
 Using DEFAULT tuning parameter for mindgc   :       4
 Using DEFAULT tuning parameter for mindgf   :    5000
 Using DEFAULT tuning parameter for mindgl   :       4
 Using DEFAULT tuning parameter for mindgr   :       1
 Using DEFAULT tuning parameter for mindgv   :      20
 Using DEFAULT tuning parameter for mincuda  :     500
 Using DEFAULT tuning parameter for mxmblk   :      64
 Using DEFAULT tuning parameter for mxmbln   :      64
 Using DEFAULT tuning parameter for nroll    :       2
 Using custom tuning parameter for ngpus     :       0
 Using customized tuning parameters: mindgm=1; mindgv=20; mindgc=4; mindgr=1; noblas=0; minvec=7

 Fortran compiler: integer size=8, double size=8, logical size=8
 default implementation of scratch files=sf  


 Variables initialized (1015), CPU time= 0.00 sec
 gthresh,energy=1d-12,gradient=1d-6,twoint=1d-18,prefac=1d-20
 noorient
 charge=0
 multiplicity=1
 geomtyp=xyz
 geom={
  H          0.0000000000        0.0000000000        0.7207574075
  H          0.0000000000        0.0000000000       -0.0207574075
 }
 MASS,ISO
 MASS,PRINT
 
 basis={
 Including file /gpfs01/work/emmanous/6Frequencies/implementation/MOLPRO/G4-Tano-F12-v2/EXAMPLE_H2/ano-pVTZ.mbas
 }
 hf
 ccsd(t)
 {freq,print=3;noproject}
 Commands initialized (834), CPU time= 0.01 sec, 672 directives.
 Default parameters read. Elapsed time= 0.07 sec

 Using DEFAULT tuning parameter for mpplat   :       3
 Using DEFAULT tuning parameter for mppspeed :    1600
 Checking input...
 Passed
1


                                         ***  PROGRAM SYSTEM MOLPRO  ***
                                       Copyright, TTI GmbH Stuttgart, 2015
                                    Version 2022.2 linked Thu May  5 23:39:45 2022


 **********************************************************************************************************************************
 LABEL *                                                                                 
  64 bit mpp version                                                                     DATE: 12-Aug-23          TIME: 10:13:51  
 **********************************************************************************************************************************

 SHA1:             518bf5c5e315925380b88506c70af759aa1d1d96
 **********************************************************************************************************************************

 Memory per process:      1500 MW
 Total memory per node:  12000 MW

 GA preallocation disabled
 GA check disabled

 Variable memory set to 1500.0 MW


 THRESHOLDS:

 ZERO    =  1.00D-12  ONEINT  =  1.00D-12  TWOINT  =  1.00D-18  PREFAC  =  1.00D-20  XXXXXX  =  1.00D-09  EORDER  =  1.00D-04
 ENERGY  =  1.00D-12  ETEST   =  0.00D+00  EDENS   =  0.00D+00  THRDEDEF=  1.00D-06  GRADIENT=  1.00D-06  STEP    =  1.00D-03
 ORBITAL =  1.00D-05  CIVEC   =  1.00D-05  COEFF   =  1.00D-04  PRINTCI =  5.00D-02  PUNCHCI =  9.90D+01  OPTGRAD =  3.00D-04
 OPTENERG=  1.00D-06  OPTSTEP =  3.00D-04  THRGRAD =  1.00D-10  COMPRESS=  1.00D-11  VARMIN  =  1.00D-07  VARMAX  =  1.00D-03
 THRDOUB =  0.00D+00  THRDIV  =  1.00D-05  THRRED  =  1.00D-07  THRPSP  =  1.00D+00  THRDC   =  1.00D-10  THRCS   =  1.00D-10
 THRNRM  =  1.00D-08  THREQ   =  0.00D+00  THRDE   =  1.00D+00  THRREF  =  1.00D-05  SPARFAC =  1.00D+00  THRDLP  =  1.00D-07
 THRDIA  =  1.00D-10  THRDLS  =  1.00D-07  THRGPS  =  0.00D+00  THRKEX  =  0.00D+00  THRDIS  =  2.00D-01  THRVAR  =  1.00D-10
 THRLOC  =  1.00D-06  THRGAP  =  1.00D-06  THRLOCT = -1.00D+00  THRGAPT = -1.00D+00  THRORB  =  1.00D-06  THRMLTP =  0.00D+00
 THRCPQCI=  1.00D-10  KEXTA   =  0.00D+00  THRCOARS=  0.00D+00  SYMTOL  =  1.00D-06  GRADTOL =  1.00D-06  THROVL  =  1.00D-08
 THRORTH =  1.00D-08  THRDLOVL= -1.00D+00  GRID    =  1.00D-06  GRIDMAX =  1.00D-03  DTMAX   =  0.00D+00  THROCCDE=  1.00D-01
 THROCCDE=  1.00D-01  THRPRINT=  2.50D-01

 SETTING CHARGE         =      0.0000000D+00                                  
 SETTING MULTIPLICITY   =         1.00000000                                  
 SETTING GEOMTYP        =    XYZ


 Using masses of most abundant isotopes

 **********************************************************************************************************************************


 Atomic masses

 Center       Mass
 H          1.00782
 H          1.00782
 SETTING BASIS          =    USERDEF


 Recomputing integrals since basis changed


 Using spherical harmonics



 PROGRAM * SEWARD (Integral evaluation for generally contracted gaussian basis sets)     Author: Roland Lindh, 1990

 Geometry written to block  1 of record 700


 Point group  C2v 



 ATOMIC COORDINATES

 NR  ATOM    CHARGE       X              Y              Z

   1  H       1.00    0.000000000    0.000000000    1.362034102
   2  H       1.00    0.000000000    0.000000000   -0.039225815

 Bond lengths in Bohr (Angstrom)

 1-2  1.401259918
     ( 0.741514815)

 NUCLEAR CHARGE:                    2
 NUMBER OF PRIMITIVE AOS:         100
 NUMBER OF SYMMETRY AOS:           92
 NUMBER OF CONTRACTIONS:           28   (   14A1  +    6B1  +    6B2  +    2A2  )
 NUMBER OF INNER CORE ORBITALS:     0   (    0A1  +    0B1  +    0B2  +    0A2  )
 NUMBER OF OUTER CORE ORBITALS:     0   (    0A1  +    0B1  +    0B2  +    0A2  )
 NUMBER OF VALENCE ORBITALS:        2   (    2A1  +    0B1  +    0B2  +    0A2  )


 NUCLEAR REPULSION ENERGY    0.71364348

 EXTRA SYMMETRY OF AOS IN SYMMETRY 1:   1 1 1 1 1 1 2 1 1 1   1 1 1 2

 Eigenvalues of metric

         1 0.732E-03 0.417E-01 0.465E-01 0.487E+00 0.489E+00 0.657E+00 0.761E+00 0.120E+01
         2 0.254E-01 0.498E+00 0.689E+00 0.136E+01 0.143E+01 0.200E+01
         3 0.254E-01 0.498E+00 0.689E+00 0.136E+01 0.143E+01 0.200E+01
         4 0.487E+00 0.151E+01


 Contracted 2-electron integrals neglected if value below      1.0D-18
 AO integral compression algorithm  1   Integral accuracy      1.0D-18

     2.097 MB (compressed) written to integral file (100.0%)

     Node minimum: 0.262 MB, node maximum: 0.262 MB


 NUMBER OF SORTED TWO-ELECTRON INTEGRALS:       2666.     BUFFER LENGTH:  32768
 NUMBER OF SEGMENTS:   1  SEGMENT LENGTH:       2666      RECORD LENGTH: 524288

 Memory used in sort:       0.56 MW

 SORT1 READ       32016. AND WROTE        2336. INTEGRALS IN      1 RECORDS. CPU TIME:     0.01 SEC, REAL TIME:     0.01 SEC
 SORT2 READ       21136. AND WROTE       24933. INTEGRALS IN      8 RECORDS. CPU TIME:     0.00 SEC, REAL TIME:     0.01 SEC

 Node minimum:        2380.  Node maximum:        3821. integrals

 OPERATOR DM      FOR CENTER  0  COORDINATES:    0.000000    0.000000    0.000000


 **********************************************************************************************************************************
 DATASETS  * FILE   NREC   LENGTH (MB)   RECORD NAMES
              1      18       28.81       500      610      700      900      950      970     1000      129      960     1100   
                                          VAR    BASINP    GEOM    SYMINP    ZMAT    AOBASIS   BASIS     P2S    ABASIS      S 
                                         1400     1410     1200     1210     1080     1600     1650     1700   
                                           T        V       H0       H01     AOSYM     SMH    MOLCAS    OPER   

 PROGRAMS   *        TOTAL       INT
 CPU TIMES  *         0.47      0.34
 REAL TIME  *         1.49 SEC
 DISK USED  *        29.09 MB (local),      264.98 MB (total)
 GA USED    *         0.00 MB       (max)       0.00 MB       (current)
 **********************************************************************************************************************************


 Program * Restricted Hartree-Fock

 Orbital guess generated from atomic densities.

 Initial occupancy:   1   0   0   0

 NELEC=    2   SYM=1   MS2= 0   THRE=1.0D-12   THRD=1.0D-06   THRG=1.0D-06  HFMA2=F  DIIS_START=2   DIIS_MAX=10   DIIS_INCORE=F

 Level shifts:    0.00 (CLOSED)    0.00 (OPEN)    0.30 (GAP_MIN)

 ITER           ETOT              DE          GRAD        DDIFF     DIIS  NEXP   TIME(IT)  TIME(TOT)  DIAG
   1       -1.13218119      -1.13218119     0.00D+00     0.82D-01     0     0       0.00      0.01    start
   2       -1.13338115      -0.00119997     0.71D-02     0.22D-02     1     0       0.00      0.01    diag
   3       -1.13341445      -0.00003330     0.11D-02     0.43D-03     2     0       0.00      0.01    diag
   4       -1.13341457      -0.00000012     0.82D-04     0.28D-04     3     0       0.00      0.01    diag
   5       -1.13341457      -0.00000000     0.12D-05     0.82D-06     4     0       0.00      0.01    diag
   6       -1.13341457      -0.00000000     0.11D-06     0.50D-07     5     0       0.00      0.01    diag
   7       -1.13341457       0.00000000     0.71D-08     0.21D-08     0     0       0.00      0.01    diag

 Final occupancy:   1   0   0   0

 !RHF STATE 1.1 Energy                 -1.133414572138
  RHF One-electron energy              -2.504260485235
  RHF Two-electron energy               0.657202435990
  RHF Kinetic energy                    1.120835431003
  RHF Nuclear energy                    0.713643477107
  RHF Virial quotient                  -1.011223004544

 !RHF STATE 1.1 Dipole moment           0.00000000     0.00000000    -0.00000000
 Dipole moment /Debye                   0.00000000     0.00000000    -0.00000000

 Orbital energies:

           1.1          2.1          3.1
     -0.594928     0.243793     0.499792

           1.2          2.2
      0.579663     1.088750

           1.3          2.3
      0.579663     1.088750

           1.4          2.4
      2.104285     3.148120


 HOMO      1.1    -0.594928 =     -16.1888eV
 LUMO      2.1     0.243793 =       6.6340eV
 LUMO-HOMO         0.838721 =      22.8228eV

 Orbitals saved in record  2100.2


 **********************************************************************************************************************************
 DATASETS  * FILE   NREC   LENGTH (MB)   RECORD NAMES
              1      18       28.81       500      610      700      900      950      970     1000      129      960     1100   
                                          VAR    BASINP    GEOM    SYMINP    ZMAT    AOBASIS   BASIS     P2S    ABASIS      S 
                                         1400     1410     1200     1210     1080     1600     1650     1700   
                                           T        V       H0       H01     AOSYM     SMH    MOLCAS    OPER   

              2       4        0.37       700     1000      520     2100   
                                         GEOM     BASIS   MCVARS     RHF  

 PROGRAMS   *        TOTAL    HF-SCF       INT
 CPU TIMES  *         0.58      0.11      0.34
 REAL TIME  *         1.82 SEC
 DISK USED  *        29.24 MB (local),      266.20 MB (total)
 GA USED    *         0.00 MB       (max)       0.00 MB       (current)
 **********************************************************************************************************************************


 PROGRAM * CCSD (Closed-shell coupled cluster)     Authors: C. Hampel, H.-J. Werner, 1991, M. Deegan, P.J. Knowles, 1992


 Convergence thresholds:  THRVAR = 1.00D-16  THRDEN = 1.00D-12

 CCSD(T)     terms to be evaluated (factor= 1.000)


 Using ITF CCSD(T) gradient implementation

 Number of closed-shell orbitals:   1 (   1   0   0   0 )
 Number of external orbitals:      27 (  13   6   6   2 )

 Molecular orbitals read from record     2100.2  Type=RHF/CANONICAL  

 Integral transformation finished. Total CPU:   0.00 sec, npass=  1  Memory used:   0.07 MW
 Time for re-packing tensors:             0.00 sec
  Reference energy                     -1.133414572138

  MP2 correlation energy               -0.031877216619
  MP2 total energy                     -1.165291788757

 ITER.      SQ.NORM     CORR.ENERGY   TOTAL ENERGY   ENERGY CHANGE        DEN1      VAR(S)    VAR(P)  DIIS     TIME
   1      1.01487615    -0.03877701    -1.17219159    -0.00689980    -0.00496259  3.69e-05  5.13e-04  1  1     0.00
   2      1.01690550    -0.03952640    -1.17294097    -0.00074939    -0.00173150  4.56e-06  8.38e-05  2  2     0.00
   3      1.01795888    -0.03964850    -1.17306307    -0.00012210    -0.00076359  9.75e-08  9.03e-06  3  3     0.00
   4      1.01824517    -0.03964703    -1.17306160     0.00000147    -0.00020857  2.43e-08  1.07e-06  4  4     0.00
   5      1.01836346    -0.03964501    -1.17305959     0.00000202    -0.00007410  7.12e-10  8.04e-08  5  5     0.01
   6      1.01839307    -0.03964377    -1.17305834     0.00000125    -0.00001966  1.56e-11  4.13e-09  6  0     0.01
   7      1.01839918    -0.03964341    -1.17305798     0.00000036    -0.00000468  2.56e-13  2.15e-10  6  1     0.01
   8      1.01840048    -0.03964333    -1.17305790     0.00000009    -0.00000107  8.55e-15  1.12e-11  6  2     0.01
   9      1.01840078    -0.03964331    -1.17305788     0.00000002    -0.00000025  1.28e-15  5.95e-13  6  3     0.02
  10      1.01840085    -0.03964330    -1.17305787     0.00000000    -0.00000006  1.33e-16  3.17e-14  6  4     0.02
  11      1.01840086    -0.03964330    -1.17305787     0.00000000    -0.00000001  5.88e-18  1.74e-15  6  5     0.02
  12      1.01840087    -0.03964330    -1.17305787     0.00000000    -0.00000000  3.89e-19  1.06e-16  6  0     0.02
  13      1.01840087    -0.03964330    -1.17305787     0.00000000    -0.00000000  2.64e-20  7.16e-18  6  1     0.02
  14      1.01840087    -0.03964330    -1.17305787     0.00000000    -0.00000000  1.37e-21  4.22e-19  6  2     0.02
  15      1.01840087    -0.03964330    -1.17305787     0.00000000    -0.00000000  2.45e-23  2.38e-20  6  3     0.02
  16      1.01840087    -0.03964330    -1.17305787     0.00000000    -0.00000000  1.65e-24  1.23e-21           0.03

 Norm of t1 vector:      0.01031020     S-energy:      0.00000000   T1 diagnostic:  0.00515510

 Time per iteration:                      0.00 sec

 RESULTS
 =======

  Reference energy                     -1.133414572138
  CCSD correlation energy              -0.039643300784
  CCSD total energy                    -1.173057872922

  Triples (T) contribution              0.000000000000
  Total correlation energy             -0.039643300784
  CCSD[T] total energy                 -1.173057872922
 !CCSD(T) total energy                 -1.173057872922

 Starting CP-CCSD(T) iterations.   Author: W. Gyorffy (2015)

 ITER.      NRM1           NRM2      VAR(S)+VAR(P)   DIIS    TIME
   1     0.00010168     0.01783527     3.14e-06      1  1    0.00
   2     0.00009831     0.01771322     2.60e-07      2  2    0.00
   3     0.00009691     0.01766419     2.58e-08      3  3    0.00
   4     0.00009630     0.01764326     9.50e-10      4  4    0.01
   5     0.00009618     0.01763996     3.90e-11      5  5    0.01
   6     0.00009616     0.01763946     4.18e-13      6  0    0.01
   7     0.00009615     0.01763943     4.14e-15      6  1    0.01
   8     0.00009615     0.01763943     1.24e-16      6  2    0.01
   9     0.00009615     0.01763943     3.83e-18      6  3    0.01
  10     0.00009615     0.01763943     6.51e-20      6  4    0.01
  11     0.00009615     0.01763943     1.37e-21              0.01


 Time per iteration:                      0.00 sec

 CPHF start vector      0.2 not found

 Starting Coupled-perturbed Hartree-Fock, convergence threshold= 1.0D-06

 ITER  FOCK  DIIS      VAR         VARC       CPU
   1     0     1    0.12D-07    0.00D+00     0.00

 CPHF convergence reached in  0 macroiterations and    0 microiterations.   Accuracy: 1.2264D-08

 CPHF solution written to record  8500.2

 Dipole moments (unrelaxed):            0.00000000     0.00000000    -0.00000000
 Orbital relaxation contribution:      -0.00000000    -0.00000000     0.00000000
 !CCSD(T) STATE 1.1 Dipole moment       0.00000000     0.00000000    -0.00000000
 Dipole moment /Debye                   0.00000000     0.00000000    -0.00000000

 CPU-time for coupled-perturbed hartree-fock:          0.00 sec

 Number of N-1 electron functions:               1
 Number of N-2 electron functions:               1
 Number of singly external CSFs:                13
 Number of doubly external CSFs:               136
 Total number of CSFs:                         150

 CCSD(T) gradient info saved on record        55555.1




 **********************************************************************************************************************************
 DATASETS  * FILE   NREC   LENGTH (MB)   RECORD NAMES
              1      21       28.89       500      610      700      900      950      970     1000      129      960     1100   
                                          VAR    BASINP    GEOM    SYMINP    ZMAT    AOBASIS   BASIS     P2S    ABASIS      S 
                                         1400     1410     1200     1210     1080     1600     1650     1700     1380     3791   
                                           T        V       H0       H01     AOSYM     SMH    MOLCAS    OPER     JKOP   
                                        55555   
                                        CCSD(T)    

              2       5        0.38       700     1000      520     2100     8500   
                                         GEOM     BASIS   MCVARS     RHF     CPHF   

 PROGRAMS   *        TOTAL   CCSD(T)    HF-SCF       INT
 CPU TIMES  *         0.72      0.14      0.11      0.34
 REAL TIME  *         1.99 SEC
 DISK USED  *        29.31 MB (local),      266.77 MB (total)
 SF USED    *         0.58 MB
 GA USED    *         0.00 MB       (max)       0.00 MB       (current)
 **********************************************************************************************************************************


 PROGRAM * HESSIAN

 *** Long output written to logfile /gpfs01/work/emmanous/6Frequencies/implementation/MOLPRO/G4-Tano-F12-v2/EXAMPLE_H2/h2.CCSDt.anopVTZ.log ***


 Computing numerical hessian using default procedure for command CCSD(T)

 Symmetry elements for unique displacements: X  Y  

 Using AUTO symmetry option

 Running default procedure: HF-SCF000  CCSD(T)


 Numerically approximating hessian using central gradient differences

 Task list generated. Total number of displacements:      8

 All   8 tasks completed.  CPU=      1.57 sec, Elapsed=      1.72 sec.

 CCSD(T) hessian saved to record  5300.2

 PROGRAM * FREQUENCIES (Calculation of harmonic vibrational spectra for CCSD(T))


 Permanent Dipole Moment [debye]
   1-  3    0.000000    0.000000    0.000000

 Dipole Moment Norm    0.0000000 [debye]

 Dipole Moment Derivatives [debye/ang]
              1             2             3             4             5             6
    1    0.00000062    0.00000000    0.00000000    0.00000062    0.00000000    0.00000000
    2    0.00000000    0.00000062    0.00000000    0.00000000    0.00000062    0.00000000
    3    0.00000000    0.00000000    0.00000000    0.00000000    0.00000000    0.00000000

 Force Constants (Second Derivatives of the Energy) in [a.u.]
                             HX1         HY1         HZ1         HX2         HY2     
           HX1          -0.0014020
           HY1           0.0000000  -0.0014020
           HZ1           0.0000000   0.0000000   0.3802508
           HX2           0.0014020   0.0000000   0.0000000  -0.0014020
           HY2           0.0000000   0.0014020   0.0000000   0.0000000  -0.0014020
           HZ2           0.0000000   0.0000000  -0.3802508   0.0000000   0.0000000
                             HZ2     
           HZ2           0.3802508


 Atomic Masses
   1-  2    1.007825    1.007825

 Mass weighted Second Derivative Matrix
                             HX1         HY1         HZ1         HX2         HY2     
           HX1          -0.0013912
           HY1           0.0000000  -0.0013912
           HZ1           0.0000000   0.0000000   0.3772984
           HX2           0.0013912   0.0000000   0.0000000  -0.0013912
           HY2           0.0000000   0.0013912   0.0000000   0.0000000  -0.0013912
           HZ2           0.0000000   0.0000000  -0.3772984   0.0000000   0.0000000
                             HZ2     
           HZ2           0.3772984


 Mass Weighted 2nd Derivative Matrix Eigenvalues
   1-  6   -0.002782   -0.002782    0.000000    0.000000    0.000000    0.754597

 Mass Weighted 2nd Derivative Matrix Eigenvectors
              1             2             3             4             5             6
    1    0.70710678    0.00000000    0.00000000    0.70710678    0.00000000    0.00000000
    2    0.00000000    0.70710678    0.70710631    0.00000000   -0.00081919    0.00000000
    3    0.00000000    0.00000000    0.00081919    0.00000000    0.70710631    0.70710678
    4   -0.70710678    0.00000000    0.00000000    0.70710678    0.00000000    0.00000000
    5    0.00000000   -0.70710678    0.70710631    0.00000000   -0.00081919    0.00000000
    6    0.00000000    0.00000000    0.00081919    0.00000000    0.70710631   -0.70710678

 Imaginary Vibration  Wavenumber
        Nr             [1/cm] 
        1              271.15
        2              271.15

   Low Vibration      Wavenumber
        Nr             [1/cm] 
        1                0.00
        2                0.00
        3                0.00

     Vibration        Wavenumber
        Nr             [1/cm] 
        1             4465.41

 FREQUENCIES * CALCULATION OF NORMAL MODES FOR CCSD(T)


 Atomic Coordinates

  Nr  Atom  Charge       X              Y              Z

   1   H     1.00    0.000000000    0.000000000    1.362034102
   2   H     1.00    0.000000000    0.000000000   -0.039225815

 Normal Modes

                              1 Ag 
 Wavenumbers [cm-1]         4465.41
 Intensities [km/mol]          0.00
 Intensities [relative]        0.00
           HX1              0.00000
           HY1              0.00000
           HZ1              0.70436
           HX2              0.00000
           HY2              0.00000
           HZ2             -0.70436


 Normal Modes of imaginary frequencies

                                  1           2
 Wavenumbers [cm-1]          271.15      271.15
 Intensities [km/mol]          0.00        0.00
 Intensities [relative]        0.00        0.00
           HX1              0.70436     0.00000
           HY1              0.00000     0.70436
           HZ1              0.00000     0.00000
           HX2             -0.70436     0.00000
           HY2              0.00000    -0.70436
           HZ2              0.00000     0.00000


 Normal Modes of low/zero frequencies

                                  1           2           3
 Wavenumbers [cm-1]            0.00        0.00        0.00
 Intensities [km/mol]          0.00        0.00        0.00
 Intensities [relative]        0.00        0.00        0.00
           HX1             -0.00000     0.70436     0.00000
           HY1              0.70436    -0.00000    -0.00082
           HZ1              0.00082    -0.00000     0.70436
           HX2             -0.00000     0.70436    -0.00000
           HY2              0.70436    -0.00000    -0.00082
           HZ2              0.00082    -0.00000     0.70436


 Frequencies dumped to record   5400.2

 Zero point energy:  0.01017296 [H]     2232.71 [1/CM]       26.71 [KJ/MOL]
 Frequency information read from record  5400.2

 Recomputing wavefunction at initial geometry


 **********************************************************************************************************************************
 DATASETS  * FILE   NREC   LENGTH (MB)   RECORD NAMES
              1      21       28.89       500      610      700      900      950      970     1000      129      960     1100   
                                          VAR    BASINP    GEOM    SYMINP    ZMAT    AOBASIS   BASIS     P2S    ABASIS      S 
                                         1400     1410     1200     1210     1080     1600     1650     1700     1380     3791   
                                           T        V       H0       H01     AOSYM     SMH    MOLCAS    OPER     JKOP   
                                        55555   
                                        CCSD(T)    

              2       8        0.38       700     1000      520     2100     8500     5300     5450     5400   
                                         GEOM     BASIS   MCVARS     RHF     CPHF     HESS     NMOD     FREQ   

 PROGRAMS   *        TOTAL      FREQ   CCSD(T)    HF-SCF       INT
 CPU TIMES  *         2.93      2.20      0.14      0.11      0.34
 REAL TIME  *         5.57 SEC
 DISK USED  *        34.37 MB (local),      305.44 MB (total)
 SF USED    *         0.58 MB
 GA USED    *         0.00 MB       (max)       0.00 MB       (current)
 **********************************************************************************************************************************

 CCSD(T)/USERDEF energy=     -1.173057872922

         CCSD(T)          HF-SCF
     -1.17305787     -1.13341457
 **********************************************************************************************************************************
 Molpro calculation terminated
