
 Working directory              : /scratch/emmanous/h2.MP2.anopVTZ.com.48544/molpro.aIAPi21YyQ/
 Global scratch directory       : /scratch/emmanous/h2.MP2.anopVTZ.com.48544/molpro.aIAPi21YyQ/
 Wavefunction directory         : /home/emmanous/wfu/
 Main file repository           : /scratch/emmanous/h2.MP2.anopVTZ.com.48544/molpro.aIAPi21YyQ/

 id        : wis

 Nodes     nprocs
 cff147       8
 GA implementation: MPI file
 GA implementation (serial work in mppx): MPI file

 Using DEFAULT tuning parameter for ncache   :   16384
 Using DEFAULT tuning parameter for mflopdgm :   10000
 Using DEFAULT tuning parameter for mflopdgv :    4000
 Using DEFAULT tuning parameter for mflopmxm :    5000
 Using DEFAULT tuning parameter for mflopmxv :    4000
 Using DEFAULT tuning parameter for mindgm   :       1
 Using DEFAULT tuning parameter for mindgc   :       4
 Using DEFAULT tuning parameter for mindgf   :    5000
 Using DEFAULT tuning parameter for mindgl   :       4
 Using DEFAULT tuning parameter for mindgr   :       1
 Using DEFAULT tuning parameter for mindgv   :      20
 Using DEFAULT tuning parameter for mincuda  :     500
 Using DEFAULT tuning parameter for mxmblk   :      64
 Using DEFAULT tuning parameter for mxmbln   :      64
 Using DEFAULT tuning parameter for nroll    :       2
 Using custom tuning parameter for ngpus     :       0
 Using customized tuning parameters: mindgm=1; mindgv=20; mindgc=4; mindgr=1; noblas=0; minvec=7

 Fortran compiler: integer size=8, double size=8, logical size=8
 default implementation of scratch files=sf  


 Variables initialized (1015), CPU time= 0.01 sec
 gthresh,energy=1d-12,gradient=1d-6,twoint=1d-18,prefac=1d-20
 noorient
 charge=0
 multiplicity=1
 geomtyp=xyz
 geom={
  H          0.0000000000        0.0000000000        0.7207574075
  H          0.0000000000        0.0000000000       -0.0207574075
 }
 MASS,ISO
 MASS,PRINT
 
 basis={
 Including file /gpfs01/work/emmanous/6Frequencies/implementation/MOLPRO/G4-Tano-F12-v2/EXAMPLE_H2/ano-pVTZ.mbas
 }
 hf
 mp2
 {freq,analytic,print=3;noproject}
 Commands initialized (834), CPU time= 0.01 sec, 672 directives.
 Default parameters read. Elapsed time= 0.07 sec

 Using DEFAULT tuning parameter for mpplat   :       3
 Using DEFAULT tuning parameter for mppspeed :    1600
 Checking input...
 Passed
1


                                         ***  PROGRAM SYSTEM MOLPRO  ***
                                       Copyright, TTI GmbH Stuttgart, 2015
                                    Version 2022.2 linked Thu May  5 23:39:45 2022


 **********************************************************************************************************************************
 LABEL *                                                                                 
  64 bit mpp version                                                                     DATE: 12-Aug-23          TIME: 10:13:44  
 **********************************************************************************************************************************

 SHA1:             518bf5c5e315925380b88506c70af759aa1d1d96
 **********************************************************************************************************************************

 Memory per process:      1500 MW
 Total memory per node:  12000 MW

 GA preallocation disabled
 GA check disabled

 Variable memory set to 1500.0 MW


 THRESHOLDS:

 ZERO    =  1.00D-12  ONEINT  =  1.00D-12  TWOINT  =  1.00D-18  PREFAC  =  1.00D-20  XXXXXX  =  1.00D-09  EORDER  =  1.00D-04
 ENERGY  =  1.00D-12  ETEST   =  0.00D+00  EDENS   =  0.00D+00  THRDEDEF=  1.00D-06  GRADIENT=  1.00D-06  STEP    =  1.00D-03
 ORBITAL =  1.00D-05  CIVEC   =  1.00D-05  COEFF   =  1.00D-04  PRINTCI =  5.00D-02  PUNCHCI =  9.90D+01  OPTGRAD =  3.00D-04
 OPTENERG=  1.00D-06  OPTSTEP =  3.00D-04  THRGRAD =  1.00D-10  COMPRESS=  1.00D-11  VARMIN  =  1.00D-07  VARMAX  =  1.00D-03
 THRDOUB =  0.00D+00  THRDIV  =  1.00D-05  THRRED  =  1.00D-07  THRPSP  =  1.00D+00  THRDC   =  1.00D-10  THRCS   =  1.00D-10
 THRNRM  =  1.00D-08  THREQ   =  0.00D+00  THRDE   =  1.00D+00  THRREF  =  1.00D-05  SPARFAC =  1.00D+00  THRDLP  =  1.00D-07
 THRDIA  =  1.00D-10  THRDLS  =  1.00D-07  THRGPS  =  0.00D+00  THRKEX  =  0.00D+00  THRDIS  =  2.00D-01  THRVAR  =  1.00D-10
 THRLOC  =  1.00D-06  THRGAP  =  1.00D-06  THRLOCT = -1.00D+00  THRGAPT = -1.00D+00  THRORB  =  1.00D-06  THRMLTP =  0.00D+00
 THRCPQCI=  1.00D-10  KEXTA   =  0.00D+00  THRCOARS=  0.00D+00  SYMTOL  =  1.00D-06  GRADTOL =  1.00D-06  THROVL  =  1.00D-08
 THRORTH =  1.00D-08  THRDLOVL= -1.00D+00  GRID    =  1.00D-06  GRIDMAX =  1.00D-03  DTMAX   =  0.00D+00  THROCCDE=  1.00D-01
 THROCCDE=  1.00D-01  THRPRINT=  2.50D-01

 SETTING CHARGE         =      0.0000000D+00                                  
 SETTING MULTIPLICITY   =         1.00000000                                  
 SETTING GEOMTYP        =    XYZ


 Using masses of most abundant isotopes

 **********************************************************************************************************************************


 Atomic masses

 Center       Mass
 H          1.00782
 H          1.00782
 SETTING BASIS          =    USERDEF


 Recomputing integrals since basis changed


 Using spherical harmonics



 PROGRAM * SEWARD (Integral evaluation for generally contracted gaussian basis sets)     Author: Roland Lindh, 1990

 Geometry written to block  1 of record 700


 Point group  C2v 



 ATOMIC COORDINATES

 NR  ATOM    CHARGE       X              Y              Z

   1  H       1.00    0.000000000    0.000000000    1.362034102
   2  H       1.00    0.000000000    0.000000000   -0.039225815

 Bond lengths in Bohr (Angstrom)

 1-2  1.401259918
     ( 0.741514815)

 NUCLEAR CHARGE:                    2
 NUMBER OF PRIMITIVE AOS:         100
 NUMBER OF SYMMETRY AOS:           92
 NUMBER OF CONTRACTIONS:           28   (   14A1  +    6B1  +    6B2  +    2A2  )
 NUMBER OF INNER CORE ORBITALS:     0   (    0A1  +    0B1  +    0B2  +    0A2  )
 NUMBER OF OUTER CORE ORBITALS:     0   (    0A1  +    0B1  +    0B2  +    0A2  )
 NUMBER OF VALENCE ORBITALS:        2   (    2A1  +    0B1  +    0B2  +    0A2  )


 NUCLEAR REPULSION ENERGY    0.71364348

 EXTRA SYMMETRY OF AOS IN SYMMETRY 1:   1 1 1 1 1 1 2 1 1 1   1 1 1 2

 Eigenvalues of metric

         1 0.732E-03 0.417E-01 0.465E-01 0.487E+00 0.489E+00 0.657E+00 0.761E+00 0.120E+01
         2 0.254E-01 0.498E+00 0.689E+00 0.136E+01 0.143E+01 0.200E+01
         3 0.254E-01 0.498E+00 0.689E+00 0.136E+01 0.143E+01 0.200E+01
         4 0.487E+00 0.151E+01


 Contracted 2-electron integrals neglected if value below      1.0D-18
 AO integral compression algorithm  1   Integral accuracy      1.0D-18

     2.097 MB (compressed) written to integral file (100.0%)

     Node minimum: 0.262 MB, node maximum: 0.262 MB


 NUMBER OF SORTED TWO-ELECTRON INTEGRALS:       2666.     BUFFER LENGTH:  32768
 NUMBER OF SEGMENTS:   1  SEGMENT LENGTH:       2666      RECORD LENGTH: 524288

 Memory used in sort:       0.56 MW

 SORT1 READ       32016. AND WROTE        2336. INTEGRALS IN      1 RECORDS. CPU TIME:     0.02 SEC, REAL TIME:     0.02 SEC
 SORT2 READ       21136. AND WROTE       24933. INTEGRALS IN      8 RECORDS. CPU TIME:     0.00 SEC, REAL TIME:     0.00 SEC

 Node minimum:        2380.  Node maximum:        3821. integrals

 OPERATOR DM      FOR CENTER  0  COORDINATES:    0.000000    0.000000    0.000000


 **********************************************************************************************************************************
 DATASETS  * FILE   NREC   LENGTH (MB)   RECORD NAMES
              1      18       28.81       500      610      700      900      950      970     1000      129      960     1100   
                                          VAR    BASINP    GEOM    SYMINP    ZMAT    AOBASIS   BASIS     P2S    ABASIS      S 
                                         1400     1410     1200     1210     1080     1600     1650     1700   
                                           T        V       H0       H01     AOSYM     SMH    MOLCAS    OPER   

 PROGRAMS   *        TOTAL       INT
 CPU TIMES  *         0.48      0.34
 REAL TIME  *         1.43 SEC
 DISK USED  *        29.09 MB (local),      264.98 MB (total)
 GA USED    *         0.00 MB       (max)       0.00 MB       (current)
 **********************************************************************************************************************************


 Program * Restricted Hartree-Fock

 Orbital guess generated from atomic densities.

 Initial occupancy:   1   0   0   0

 NELEC=    2   SYM=1   MS2= 0   THRE=1.0D-12   THRD=1.0D-06   THRG=1.0D-06  HFMA2=F  DIIS_START=2   DIIS_MAX=10   DIIS_INCORE=F

 Level shifts:    0.00 (CLOSED)    0.00 (OPEN)    0.30 (GAP_MIN)

 ITER           ETOT              DE          GRAD        DDIFF     DIIS  NEXP   TIME(IT)  TIME(TOT)  DIAG
   1       -1.13218119      -1.13218119     0.00D+00     0.82D-01     0     0       0.00      0.00    start
   2       -1.13338115      -0.00119997     0.71D-02     0.22D-02     1     0       0.00      0.00    diag
   3       -1.13341445      -0.00003330     0.11D-02     0.43D-03     2     0       0.00      0.00    diag
   4       -1.13341457      -0.00000012     0.82D-04     0.28D-04     3     0       0.00      0.00    diag
   5       -1.13341457      -0.00000000     0.12D-05     0.82D-06     4     0       0.00      0.00    diag
   6       -1.13341457      -0.00000000     0.11D-06     0.50D-07     5     0       0.00      0.00    diag
   7       -1.13341457      -0.00000000     0.71D-08     0.21D-08     0     0       0.00      0.00    diag

 Final occupancy:   1   0   0   0

 !RHF STATE 1.1 Energy                 -1.133414572138
  RHF One-electron energy              -2.504260485235
  RHF Two-electron energy               0.657202435990
  RHF Kinetic energy                    1.120835431003
  RHF Nuclear energy                    0.713643477107
  RHF Virial quotient                  -1.011223004544

 !RHF STATE 1.1 Dipole moment           0.00000000     0.00000000    -0.00000000
 Dipole moment /Debye                   0.00000000     0.00000000    -0.00000000

 Orbital energies:

           1.1          2.1          3.1
     -0.594928     0.243793     0.499792

           1.2          2.2
      0.579663     1.088750

           1.3          2.3
      0.579663     1.088750

           1.4          2.4
      2.104285     3.148120


 HOMO      1.1    -0.594928 =     -16.1888eV
 LUMO      2.1     0.243793 =       6.6340eV
 LUMO-HOMO         0.838721 =      22.8228eV

 Orbitals saved in record  2100.2


 **********************************************************************************************************************************
 DATASETS  * FILE   NREC   LENGTH (MB)   RECORD NAMES
              1      18       28.81       500      610      700      900      950      970     1000      129      960     1100   
                                          VAR    BASINP    GEOM    SYMINP    ZMAT    AOBASIS   BASIS     P2S    ABASIS      S 
                                         1400     1410     1200     1210     1080     1600     1650     1700   
                                           T        V       H0       H01     AOSYM     SMH    MOLCAS    OPER   

              2       4        0.37       700     1000      520     2100   
                                         GEOM     BASIS   MCVARS     RHF  

 PROGRAMS   *        TOTAL    HF-SCF       INT
 CPU TIMES  *         0.91      0.43      0.34
 REAL TIME  *         2.05 SEC
 DISK USED  *        29.24 MB (local),      266.20 MB (total)
 GA USED    *         0.00 MB       (max)       0.00 MB       (current)
 **********************************************************************************************************************************


 PROGRAM * MP2 (Closed-shell)     Authors: C. Hampel, H.-J. Werner, 1991, M. Deegan, P.J. Knowles, 1992


 Convergence thresholds:  THRVAR = 1.00D-16  THRDEN = 1.00D-12

 Number of closed-shell orbitals:   1 (   1   0   0   0 )
 Number of external orbitals:      27 (  13   6   6   2 )

 Molecular orbitals read from record     2100.2  Type=RHF/CANONICAL  

 Number of N-1 electron functions:               1
 Number of N-2 electron functions:               1
 Number of singly external CSFs:                13
 Number of doubly external CSFs:               136
 Total number of CSFs:                         150

 Length of J-op  integral file:               0.00 MB
 Length of K-op  integral file:               0.02 MB

 Integral transformation finished. Total CPU:   0.00 sec, npass=  1  Memory used:   0.07 MW

 Memory needed for MP2:                      0.00 MW

 SCS-MP2 correlation energy:           -0.038252659943   (PS=  1.200000  PT=  0.333333)
 SCS-MP2 total energy:                 -1.171667232081


  Reference energy                     -1.133414572138
  MP2 singlet pair energy              -0.031877216619
  MP2 triplet pair energy               0.000000000000
  MP2 correlation energy               -0.031877216619

 !MP2 total energy                     -1.165291788757

 KEXT needed  1 integral passes. Memory used:   0.04 MW  CPU time:      0.00 sec

 CPHF start vector      0.2 not found

 Starting Coupled-perturbed Hartree-Fock, convergence threshold= 1.0D-06

 ITER  FOCK  DIIS      VAR         VARC       CPU
   1     0     1    0.15D-01    0.00D+00     0.00
   2     1     1    0.38D-02    0.00D+00     0.01
   3     1     2    0.21D-03    0.00D+00     0.01
   4     1     3    0.23D-05    0.00D+00     0.01
   5     1     4    0.17D-06    0.00D+00     0.01

 CPHF convergence reached in  4 macroiterations and    0 microiterations.   Accuracy: 1.6800D-07

 CPHF solution written to record  4100.2

 Dipole moments (unrelaxed):            0.00000000     0.00000000    -0.00000000
 Orbital relaxation contribution:      -0.00000000    -0.00000000    -0.00000000
 !MP2 STATE 1.1 Dipole moment           0.00000000     0.00000000    -0.00000000
 Dipole moment /Debye                   0.00000000     0.00000000    -0.00000000

 CPU-time for density and lagrangian:                  0.00 sec
 CPU-time for coupled-perturbed hartree-fock:          0.01 sec

 MP2 gradient info saved on record         5200.1


 **********************************************************************************************************************************
 DATASETS  * FILE   NREC   LENGTH (MB)   RECORD NAMES
              1      20       28.83       500      610      700      900      950      970     1000      129      960     1100   
                                          VAR    BASINP    GEOM    SYMINP    ZMAT    AOBASIS   BASIS     P2S    ABASIS      S 
                                         1400     1410     1200     1210     1080     1600     1650     1700     1380     5200   
                                           T        V       H0       H01     AOSYM     SMH    MOLCAS    OPER     JKOP      MP2  

              2       5        0.38       700     1000      520     2100     4100   
                                         GEOM     BASIS   MCVARS     RHF     CPHF   

 PROGRAMS   *        TOTAL       MP2    HF-SCF       INT
 CPU TIMES  *         1.00      0.09      0.43      0.34
 REAL TIME  *         2.14 SEC
 DISK USED  *        29.25 MB (local),      266.28 MB (total)
 SF USED    *         0.04 MB
 GA USED    *         0.00 MB       (max)       0.00 MB       (current)
 **********************************************************************************************************************************


 PROGRAM * HESSIAN

 *** Long output written to logfile /gpfs01/work/emmanous/6Frequencies/implementation/MOLPRO/G4-Tano-F12-v2/EXAMPLE_H2/h2.MP2.anopVTZ.log ***


 Computing numerical hessian using default procedure for command MP2

 Symmetry elements for unique displacements: X  Y  

 Using AUTO symmetry option

 Running default procedure: HF-SCF000  MP2


 Numerically approximating hessian using central gradient differences

 Task list generated. Total number of displacements:      8

 All   8 tasks completed.  CPU=      1.27 sec, Elapsed=      1.48 sec.

 MP2 hessian saved to record  5300.2

 PROGRAM * FREQUENCIES (Calculation of harmonic vibrational spectra for MP2)


 Permanent Dipole Moment [debye]
   1-  3    0.000000    0.000000    0.000000

 Dipole Moment Norm    0.0000000 [debye]

 Dipole Moment Derivatives [debye/ang]
              1             2             3             4             5             6
    1    0.00000087    0.00000000    0.00000000    0.00000087    0.00000000    0.00000000
    2    0.00000000    0.00000087    0.00000000    0.00000000    0.00000087    0.00000000
    3    0.00000000    0.00000000    0.00000000    0.00000000    0.00000000    0.00000000

 Force Constants (Second Derivatives of the Energy) in [a.u.]
                             HX1         HY1         HZ1         HX2         HY2     
           HX1           0.0014884
           HY1           0.0000000   0.0014884
           HZ1           0.0000000   0.0000000   0.3860824
           HX2          -0.0014884   0.0000000   0.0000000   0.0014884
           HY2           0.0000000  -0.0014884   0.0000000   0.0000000   0.0014884
           HZ2           0.0000000   0.0000000  -0.3860824   0.0000000   0.0000000
                             HZ2     
           HZ2           0.3860824


 Atomic Masses
   1-  2    1.007825    1.007825

 Mass weighted Second Derivative Matrix
                             HX1         HY1         HZ1         HX2         HY2     
           HX1           0.0014769
           HY1           0.0000000   0.0014769
           HZ1           0.0000000   0.0000000   0.3830847
           HX2          -0.0014769   0.0000000   0.0000000   0.0014769
           HY2           0.0000000  -0.0014769   0.0000000   0.0000000   0.0014769
           HZ2           0.0000000   0.0000000  -0.3830847   0.0000000   0.0000000
                             HZ2     
           HZ2           0.3830847


 Mass Weighted 2nd Derivative Matrix Eigenvalues
   1-  6    0.000000    0.000000    0.000000    0.002954    0.002954    0.766169

 Mass Weighted 2nd Derivative Matrix Eigenvectors
              1             2             3             4             5             6
    1    0.00000000    0.00022267    0.70710675    0.70710678    0.00000000    0.00000000
    2   -0.00000423    0.70710675   -0.00022267    0.00000000    0.70710678    0.00000000
    3    0.70710678    0.00000423    0.00000000    0.00000000    0.00000000    0.70710678
    4    0.00000000    0.00022267    0.70710675   -0.70710678    0.00000000    0.00000000
    5   -0.00000423    0.70710675   -0.00022267    0.00000000   -0.70710678    0.00000000
    6    0.70710678    0.00000423    0.00000000    0.00000000    0.00000000   -0.70710678

 Imaginary Vibration  Wavenumber
        Nr             [1/cm] 
        1                0.00

   Low Vibration      Wavenumber
        Nr             [1/cm] 
        1                0.00
        2                0.00

     Vibration        Wavenumber
        Nr             [1/cm] 
        1              279.38
        2              279.38
        3             4499.53

 FREQUENCIES * CALCULATION OF NORMAL MODES FOR MP2


 Atomic Coordinates

  Nr  Atom  Charge       X              Y              Z

   1   H     1.00    0.000000000    0.000000000    1.362034102
   2   H     1.00    0.000000000    0.000000000   -0.039225815

 Normal Modes

                              1 B2g       2 Err       3 Err
 Wavenumbers [cm-1]          279.38      279.38     4499.53
 Intensities [km/mol]          0.00        0.00        0.00
 Intensities [relative]        0.00        0.00        0.00
           HX1              0.70436    -0.00000     0.00000
           HY1              0.00000     0.70436    -0.00000
           HZ1              0.00000     0.00000     0.70436
           HX2             -0.70436     0.00000    -0.00000
           HY2              0.00000    -0.70436    -0.00000
           HZ2             -0.00000     0.00000    -0.70436


 Normal Modes of imaginary frequencies

                                  1
 Wavenumbers [cm-1]            0.00
 Intensities [km/mol]          0.00
 Intensities [relative]        0.00
           HX1             -0.00000
           HY1             -0.00000
           HZ1              0.70436
           HX2             -0.00000
           HY2             -0.00000
           HZ2              0.70436


 Normal Modes of low/zero frequencies

                                  1           2
 Wavenumbers [cm-1]            0.00        0.00
 Intensities [km/mol]          0.00        0.00
 Intensities [relative]        0.00        0.00
           HX1              0.00022     0.70436
           HY1              0.70436    -0.00022
           HZ1              0.00000    -0.00000
           HX2              0.00022     0.70436
           HY2              0.70436    -0.00022
           HZ2              0.00000    -0.00000


 Frequencies dumped to record   5400.2

 Zero point energy:  0.01152360 [H]     2529.14 [1/CM]       30.26 [KJ/MOL]
 Frequency information read from record  5400.2

 Recomputing wavefunction at initial geometry


 **********************************************************************************************************************************
 DATASETS  * FILE   NREC   LENGTH (MB)   RECORD NAMES
              1      20       28.83       500      610      700      900      950      970     1000      129      960     1100   
                                          VAR    BASINP    GEOM    SYMINP    ZMAT    AOBASIS   BASIS     P2S    ABASIS      S 
                                         1400     1410     1200     1210     1080     1600     1650     1700     1380     5200   
                                           T        V       H0       H01     AOSYM     SMH    MOLCAS    OPER     JKOP      MP2  

              2       8        0.38       700     1000      520     2100     4100     5300     5450     5400   
                                         GEOM     BASIS   MCVARS     RHF     CPHF     HESS     NMOD     FREQ   

 PROGRAMS   *        TOTAL      FREQ       MP2    HF-SCF       INT
 CPU TIMES  *         2.65      1.65      0.09      0.43      0.34
 REAL TIME  *         5.19 SEC
 DISK USED  *        34.37 MB (local),      305.44 MB (total)
 SF USED    *         0.04 MB
 GA USED    *         0.00 MB       (max)       0.00 MB       (current)
 **********************************************************************************************************************************

 MP2/USERDEF energy=     -1.165291788797

             MP2          HF-SCF
     -1.16529179     -1.13341457
 **********************************************************************************************************************************
 Molpro calculation terminated
