
 Working directory              : /scratch/emmanous/h2.MP2F12.VQZF12.com.49416/molpro.Sm3NbSIHli/
 Global scratch directory       : /scratch/emmanous/h2.MP2F12.VQZF12.com.49416/molpro.Sm3NbSIHli/
 Wavefunction directory         : /home/emmanous/wfu/
 Main file repository           : /scratch/emmanous/h2.MP2F12.VQZF12.com.49416/molpro.Sm3NbSIHli/

 id        : wis

 Nodes     nprocs
 cff147       8
 GA implementation: MPI file
 GA implementation (serial work in mppx): MPI file

 Using DEFAULT tuning parameter for ncache   :   16384
 Using DEFAULT tuning parameter for mflopdgm :   10000
 Using DEFAULT tuning parameter for mflopdgv :    4000
 Using DEFAULT tuning parameter for mflopmxm :    5000
 Using DEFAULT tuning parameter for mflopmxv :    4000
 Using DEFAULT tuning parameter for mindgm   :       1
 Using DEFAULT tuning parameter for mindgc   :       4
 Using DEFAULT tuning parameter for mindgf   :    5000
 Using DEFAULT tuning parameter for mindgl   :       4
 Using DEFAULT tuning parameter for mindgr   :       1
 Using DEFAULT tuning parameter for mindgv   :      20
 Using DEFAULT tuning parameter for mincuda  :     500
 Using DEFAULT tuning parameter for mxmblk   :      64
 Using DEFAULT tuning parameter for mxmbln   :      64
 Using DEFAULT tuning parameter for nroll    :       2
 Using custom tuning parameter for ngpus     :       0
 Using customized tuning parameters: mindgm=1; mindgv=20; mindgc=4; mindgr=1; noblas=0; minvec=7

 Fortran compiler: integer size=8, double size=8, logical size=8
 default implementation of scratch files=sf  


 Variables initialized (1015), CPU time= 0.00 sec
 gthresh,energy=1d-12,gradient=1d-6,twoint=1d-18,prefac=1d-20
 noorient
 charge=0
 multiplicity=1
 geomtyp=xyz
 geom={
  H          0.0000000000        0.0000000000        0.7207574075
  H          0.0000000000        0.0000000000       -0.0207574075
 }
 MASS,ISO
 MASS,PRINT
 
 basis,vqz-f12
 df-hf
 df-mp2-f12,ansatz=3*C(FIX,HY1),cabs=0,cabs_singles=0,ri_basis=optri
 {freq,print=3;noproject}
 
 Commands initialized (834), CPU time= 0.01 sec, 672 directives.
 Default parameters read. Elapsed time= 0.06 sec

 Using DEFAULT tuning parameter for mpplat   :       3
 Using DEFAULT tuning parameter for mppspeed :    1600
 Checking input...
 Passed
1


                                         ***  PROGRAM SYSTEM MOLPRO  ***
                                       Copyright, TTI GmbH Stuttgart, 2015
                                    Version 2022.2 linked Thu May  5 23:39:45 2022


 **********************************************************************************************************************************
 LABEL *                                                                                 
  64 bit mpp version                                                                     DATE: 12-Aug-23          TIME: 10:16:38  
 **********************************************************************************************************************************

 SHA1:             518bf5c5e315925380b88506c70af759aa1d1d96
 **********************************************************************************************************************************

 Memory per process:      1500 MW
 Total memory per node:  12000 MW

 GA preallocation disabled
 GA check disabled

 Variable memory set to 1500.0 MW


 THRESHOLDS:

 ZERO    =  1.00D-12  ONEINT  =  1.00D-12  TWOINT  =  1.00D-18  PREFAC  =  1.00D-20  XXXXXX  =  1.00D-09  EORDER  =  1.00D-04
 ENERGY  =  1.00D-12  ETEST   =  0.00D+00  EDENS   =  0.00D+00  THRDEDEF=  1.00D-06  GRADIENT=  1.00D-06  STEP    =  1.00D-03
 ORBITAL =  1.00D-05  CIVEC   =  1.00D-05  COEFF   =  1.00D-04  PRINTCI =  5.00D-02  PUNCHCI =  9.90D+01  OPTGRAD =  3.00D-04
 OPTENERG=  1.00D-06  OPTSTEP =  3.00D-04  THRGRAD =  1.00D-10  COMPRESS=  1.00D-11  VARMIN  =  1.00D-07  VARMAX  =  1.00D-03
 THRDOUB =  0.00D+00  THRDIV  =  1.00D-05  THRRED  =  1.00D-07  THRPSP  =  1.00D+00  THRDC   =  1.00D-10  THRCS   =  1.00D-10
 THRNRM  =  1.00D-08  THREQ   =  0.00D+00  THRDE   =  1.00D+00  THRREF  =  1.00D-05  SPARFAC =  1.00D+00  THRDLP  =  1.00D-07
 THRDIA  =  1.00D-10  THRDLS  =  1.00D-07  THRGPS  =  0.00D+00  THRKEX  =  0.00D+00  THRDIS  =  2.00D-01  THRVAR  =  1.00D-10
 THRLOC  =  1.00D-06  THRGAP  =  1.00D-06  THRLOCT = -1.00D+00  THRGAPT = -1.00D+00  THRORB  =  1.00D-06  THRMLTP =  0.00D+00
 THRCPQCI=  1.00D-10  KEXTA   =  0.00D+00  THRCOARS=  0.00D+00  SYMTOL  =  1.00D-06  GRADTOL =  1.00D-06  THROVL  =  1.00D-08
 THRORTH =  1.00D-08  THRDLOVL= -1.00D+00  GRID    =  1.00D-06  GRIDMAX =  1.00D-03  DTMAX   =  0.00D+00  THROCCDE=  1.00D-01
 THROCCDE=  1.00D-01  THRPRINT=  2.50D-01

 SETTING CHARGE         =      0.0000000D+00                                  
 SETTING MULTIPLICITY   =         1.00000000                                  
 SETTING GEOMTYP        =    XYZ

 Turning off symmetry in density fitting calculation
 To re-enable, use 'symmetry,auto'



 Using masses of most abundant isotopes

 **********************************************************************************************************************************


 Atomic masses

 Center       Mass
 H          1.00782
 H          1.00782
 SETTING BASIS          =    VQZ-F12


 Recomputing integrals since basis changed


 Using spherical harmonics

 Library entry H      S cc-pVQZ-F12          selected for orbital group  1
 Library entry H      P cc-pVQZ-F12          selected for orbital group  1
 Library entry H      D cc-pVQZ-F12          selected for orbital group  1
 Library entry H      F cc-pVQZ-F12          selected for orbital group  1


 PROGRAM * SEWARD (Integral evaluation for generally contracted gaussian basis sets)     Author: Roland Lindh, 1990

 Geometry written to block  1 of record 700


 Point group  C1  



 ATOMIC COORDINATES

 NR  ATOM    CHARGE       X              Y              Z

   1  H       1.00    0.000000000    0.000000000    1.362034102
   2  H       1.00    0.000000000    0.000000000   -0.039225815

 Bond lengths in Bohr (Angstrom)

 1-2  1.401259918
     ( 0.741514815)

 NUCLEAR CHARGE:                    2
 NUMBER OF PRIMITIVE AOS:          84
 NUMBER OF SYMMETRY AOS:           74
 NUMBER OF CONTRACTIONS:           68   (   68A   )
 NUMBER OF INNER CORE ORBITALS:     0   (    0A   )
 NUMBER OF OUTER CORE ORBITALS:     0   (    0A   )
 NUMBER OF VALENCE ORBITALS:        2   (    2A   )


 NUCLEAR REPULSION ENERGY    0.71364348

 EXTRA SYMMETRY OF AOS IN SYMMETRY 1:   1 1 1 1 1 2 3 1 2 3   1 2 3 1 2 3 1 1 4 2   5 3 1 4 2 5 3 2 3 1   6 4 7 5 1 1 1 1 1 2
                                        3 1 2 3 1 2 3 1 2 3   1 1 4 2 5 3 1 4 2 5   3 2 3 1 6 4 7 5

 Eigenvalues of metric

         1 0.289E-04 0.249E-03 0.531E-03 0.563E-03 0.147E-02 0.147E-02 0.273E-02 0.896E-02


 OPERATOR DM      FOR CENTER  0  COORDINATES:    0.000000    0.000000    0.000000


 **********************************************************************************************************************************
 DATASETS  * FILE   NREC   LENGTH (MB)   RECORD NAMES
              1      18       28.74       500      610      700      900      950      970     1000      129      960     1100   
                                          VAR    BASINP    GEOM    SYMINP    ZMAT    AOBASIS   BASIS     P2S    ABASIS      S 
                                         1400     1410     1200     1210     1080     1600     1650     1700   
                                           T        V       H0       H01     AOSYM     SMH    MOLCAS    OPER   

 PROGRAMS   *        TOTAL       INT
 CPU TIMES  *         0.38      0.25
 REAL TIME  *         1.32 SEC
 DISK USED  *        29.02 MB (local),      232.17 MB (total)
 GA USED    *         0.00 MB       (max)       0.00 MB       (current)
 **********************************************************************************************************************************


 Program * Restricted Hartree-Fock

 Basis set VQZ-F12/JKFIT generated.      Number of basis functions:   152 
 Coulomb and exchange fitting
 Thresholds for fitting:       THRAO_COUL= 1.0D-15    THRAO_EXCH= 1.0D-13    THRMO= 1.0D-12    THRPROD= 1.0D-12    THRASM= 1.0D-12
                               THR2HLF=    1.0D-12

 Basis set VQZ-F12-JKFIT loaded. Number of basis functions: 152

 Orbital guess generated from atomic densities. Full valence occupancy:    2
 Using density fitting in orbital guess


 Initial occupancy:   1

 NELEC=    2   SYM=1   MS2= 0   THRE=1.0D-12   THRD=1.0D-06   THRG=1.0D-06  HFMA2=F  DIIS_START=2   DIIS_MAX=10   DIIS_INCORE=F

 Level shifts:    0.00 (CLOSED)    0.00 (OPEN)    0.30 (GAP_MIN)

 ITER           ETOT              DE          GRAD        DDIFF     DIIS  NEXP   TIME(IT)  TIME(TOT)  DIAG
   1       -1.13225324      -1.13225324     0.00D+00     0.47D-01     0     0       0.00      0.02    start
   2       -1.13353660      -0.00128336     0.31D-02     0.28D-02     1     0       0.00      0.02    diag
   3       -1.13358437      -0.00004777     0.51D-03     0.42D-03     2     0       0.01      0.03    diag
   4       -1.13358506      -0.00000069     0.64D-04     0.58D-04     3     0       0.00      0.03    diag
   5       -1.13358506      -0.00000000     0.36D-05     0.68D-05     4     0       0.01      0.04    diag
   6       -1.13358506      -0.00000000     0.16D-06     0.43D-06     5     0       0.00      0.04    diag
   7       -1.13358506       0.00000000     0.76D-08     0.99D-08     6     0       0.01      0.05    diag
   8       -1.13358506      -0.00000000     0.10D-08     0.15D-08     0     0       0.00      0.05    fixocc

 Final occupancy:   1

 !RHF STATE 1.1 Energy                 -1.133585061576
  RHF One-electron energy              -2.505565746024
  RHF Two-electron energy               0.658337207340
  RHF Kinetic energy                    1.125263028929
  RHF Nuclear energy                    0.713643477107
  RHF Virial quotient                  -1.007395633229

 !RHF STATE 1.1 Dipole moment           0.00000000    -0.00000000     0.00000000
 Dipole moment /Debye                   0.00000000    -0.00000000     0.00000000

 Orbital energies:

           1.1          2.1          3.1
     -0.594446     0.119314     0.156595


 HOMO      1.1    -0.594446 =     -16.1757eV
 LUMO      2.1     0.119314 =       3.2467eV
 LUMO-HOMO         0.713760 =      19.4224eV

 Orbitals saved in record  2100.2


 **********************************************************************************************************************************
 DATASETS  * FILE   NREC   LENGTH (MB)   RECORD NAMES
              1      18       28.74       500      610      700      900      950      970     1000      129      960     1100   
                                          VAR    BASINP    GEOM    SYMINP    ZMAT    AOBASIS   BASIS     P2S    ABASIS      S 
                                         1400     1410     1200     1210     1080     1600     1650     1700   
                                           T        V       H0       H01     AOSYM     SMH    MOLCAS    OPER   

              2       4        0.44       700     1000      520     2100   
                                         GEOM     BASIS   MCVARS     RHF  

 PROGRAMS   *        TOTAL     DF-HF       INT
 CPU TIMES  *         0.63      0.25      0.25
 REAL TIME  *         1.74 SEC
 DISK USED  *        29.49 MB (local),      235.94 MB (total)
 SF USED    *         0.16 MB
 GA USED    *         0.00 MB       (max)       0.00 MB       (current)
 **********************************************************************************************************************************


 PROGRAM * MP2 (Closed-shell)     Authors: C. Hampel, H.-J. Werner, 1991, M. Deegan, P.J. Knowles, 1992

                                   MP2-F12 implementation by H.-J. Werner, 2007

                   Density fitting integral evaluation by F.R. Manby, 2003,2007, G. Knizia, 2010


 Basis set CC-PVQZ-F12/OPTRI generated.  Number of basis functions:   100 
 Basis set CC-PVQZ-F12/CABS generated.   Number of basis functions:   168 
 Basis set VQZ-F12/MP2FIT generated.     Number of basis functions:   160 

 Convergence thresholds:  THRVAR = 1.00D-16  THRDEN = 1.00D-12

 Using ITF DF-MP2-F12 gradient implementation

 Number of closed-shell orbitals:   1 (   1 )
 Number of external orbitals:      67 (  67 )

 Molecular orbitals read from record     2100.2  Type=RHF/CANONICAL  
 Ansatz: F12/3*C(FIX,HY1)
 Enter DF-MP2-F12 [ITF]

 Geminal basis:    OPTFULL  GEM_TYPE=SLATER  BETA=1.0  NGEM=6

 Optimizing Gaussian exponents for each gem_beta

 Geminal optimization for beta= 1.0000
 Weight function:   m=0, omega= 1.4646

 Augmented Hessian optimization of geminal fit. Trust ratio= 0.40000
 Convergence reached after   2 iterations. Final gradient= 8.66D-16, Step= 4.23D-06, Delta= 1.28D-09

 Alpha:                 0.19532     0.81920     2.85917     9.50073    35.69989   197.79328
 Coeff:                 0.27070     0.30552     0.18297     0.10986     0.06810     0.04224


  SCS-MP2 correlation energy:           -0.03934706   (PS=  1.200000  PT=  0.333333)
  SCS-MP2 total energy                 -1.172932120591

  Norm of first-order wave function     0.010425530559

  Reference energy                     -1.133585061576
  MP2 singlet pair energy              -0.032789215845
  MP2 triplet pair energy               0.000000000000
  MP2 correlation energy               -0.032789215845
 !MP2 total energy                     -1.166374277422


  DF-MP2-F12 energy corrections:
  ==============================
  Approx.                                    Total
  DF-MP2-F12/3*C(DX,FIX):              -0.001516063229
  DF-MP2-F12/3*C(FIX):                 -0.001472059207

  DF-MP2-F12 correlation energies:
  ================================
  Approx.                                    Ecorr
  DF-MP2:                              -0.032789215845
  DF-MP2-F12/3*C(DX,FIX):              -0.034305279074
  DF-MP2-F12/3*C(FIX):                 -0.034261275052

  Reference energy                     -1.133585061576
  MP2-F12 correlation energy           -0.034261275052

 !MP2-F12 total energy                 -1.167846336629


 ===============================================================
 One-body density matrix check:   DF-MP2-F12 energy corrections:
  DF-MP2-F12/3*C(FIX)(1rdm):           -0.001472059207
 ===============================================================

 Starting coupled-perturbed Hartree-Fock, convergence threshold= 1e-06

 ITER   MIC  DIIS         VAR       VAReC       VARec      CPU
    1           1    3.87e-03    0.00e+00    3.87e-03     0.00
    2           2    9.00e-04    0.00e+00    9.00e-04     0.00
    3           3    5.04e-05    0.00e+00    5.04e-05     0.00
    4           4    1.51e-06    0.00e+00    1.51e-06     0.01
    5                4.97e-08    0.00e+00    4.97e-08     0.01

 CPHF convergence reached in 5 macroiterations. Accuracy: 4.97e-08
  Timings in the CPHF solver


 Dipole moments (unrelaxed,MP2):        0.00000000     0.00000000     0.00000000
 Dipole moments (unrelaxed,F12):        0.00000000    -0.00000000    -0.00000000

 CPHF solution written to record  8500.2

 Dipole moments (unrelaxed):            0.00000000    -0.00000000     0.00000000
 Orbital relaxation contribution:       0.00000000     0.00000000     0.00000000
 ! STATE 1.1 Dipole moment              0.00000000    -0.00000000     0.00000000
 Dipole moment /Debye                   0.00000000    -0.00000000     0.00000000

 Number of N-1 electron functions:               1
 Number of N-2 electron functions:               1
 Number of singly external CSFs:                67
 Number of doubly external CSFs:              2278
 Total number of CSFs:                        2346

 DF-MP2-F12 gradient info saved on record        55555.1




 **********************************************************************************************************************************
 DATASETS  * FILE   NREC   LENGTH (MB)   RECORD NAMES
              1      19       28.85       500      610      700      900      950      970     1000      129      960     1100   
                                          VAR    BASINP    GEOM    SYMINP    ZMAT    AOBASIS   BASIS     P2S    ABASIS      S 
                                         1400     1410     1200     1210     1080     1600     1650     1700    55555   
                                           T        V       H0       H01     AOSYM     SMH    MOLCAS    OPER      MP2  

              2       6        0.58       700     1000      520     2100    57001     8500   
                                         GEOM     BASIS   MCVARS     RHF              CPHF   

 PROGRAMS   *        TOTAL   MP2-F12     DF-HF       INT
 CPU TIMES  *         1.57      0.94      0.25      0.25
 REAL TIME  *         3.01 SEC
 DISK USED  *        29.49 MB (local),      235.94 MB (total)
 SF USED    *       511.94 MB
 GA USED    *         0.00 MB       (max)       0.00 MB       (current)
 **********************************************************************************************************************************


 PROGRAM * HESSIAN

 *** Long output written to logfile /gpfs01/work/emmanous/6Frequencies/implementation/MOLPRO/G4-Tano-F12-v2/EXAMPLE_H2/h2.MP2F12.VQZF12.log ***


 Computing numerical hessian using default procedure for command DF-MP2-F12

 Symmetry elements for unique displacements: X  Y  

 Using no symmetry in wavefunction calculations

 Running default procedure: DF-HF-SCF000  DF-MP2-F12


 Numerically approximating hessian using central gradient differences

 Task list generated. Total number of displacements:      8

 All   8 tasks completed.  CPU=      6.82 sec, Elapsed=      7.32 sec.

 DF-MP2-F12 hessian saved to record  5300.2

 PROGRAM * FREQUENCIES (Calculation of harmonic vibrational spectra for DF-MP2-F12)


 Permanent Dipole Moment [debye]
   1-  3    0.000000    0.000000    0.000000

 Dipole Moment Norm    0.0000000 [debye]

 Dipole Moment Derivatives [debye/ang]
              1             2             3             4             5             6
    1    0.00000000    0.00000000    0.00000000    0.00000000    0.00000000    0.00000000
    2    0.00000000    0.00000000    0.00000000    0.00000000    0.00000000    0.00000000
    3    0.00000000    0.00000000    0.00000002    0.00000000    0.00000000    0.00000000

 Force Constants (Second Derivatives of the Energy) in [a.u.]
                             HX1         HY1         HZ1         HX2         HY2     
           HX1           0.0029301
           HY1           0.0000000   0.0029301
           HZ1           0.0000000  -0.0000000   0.3757129
           HX2          -0.0029301   0.0000000  -0.0000000   0.0029301
           HY2           0.0000000  -0.0029301   0.0000000   0.0000000   0.0029301
           HZ2           0.0000000  -0.0000000  -0.3757129  -0.0000000   0.0000000
                             HZ2     
           HZ2           0.3757129


 Atomic Masses
   1-  2    1.007825    1.007825

 Mass weighted Second Derivative Matrix
                             HX1         HY1         HZ1         HX2         HY2     
           HX1           0.0029074
           HY1           0.0000000   0.0029074
           HZ1           0.0000000  -0.0000000   0.3727957
           HX2          -0.0029074   0.0000000  -0.0000000   0.0029074
           HY2           0.0000000  -0.0029074   0.0000000   0.0000000   0.0029074
           HZ2           0.0000000  -0.0000000  -0.3727957  -0.0000000   0.0000000
                             HZ2     
           HZ2           0.3727957


 Mass Weighted 2nd Derivative Matrix Eigenvalues
   1-  6    0.000000    0.000000    0.000000    0.005815    0.005815    0.745591

 Mass Weighted 2nd Derivative Matrix Eigenvectors
              1             2             3             4             5             6
    1   -0.00001095    0.70710680    0.00016578    0.00000000    0.70710674    0.00000000
    2   -0.00000651   -0.00016578    0.70710676    0.70710679    0.00000000    0.00000000
    3    0.70710678    0.00001095    0.00000651    0.00000000    0.00000000    0.70710678
    4   -0.00001095    0.70710672    0.00016578    0.00000000   -0.70710682    0.00000000
    5   -0.00000651   -0.00016578    0.70710677   -0.70710678    0.00000000    0.00000000
    6    0.70710678    0.00001095    0.00000651    0.00000000    0.00000000   -0.70710678

 Imaginary Vibration  Wavenumber
        Nr             [1/cm] 
        1                0.00

   Low Vibration      Wavenumber
        Nr             [1/cm] 
        1                0.00
        2                0.00

     Vibration        Wavenumber
        Nr             [1/cm] 
        1              391.99
        2              391.99
        3             4438.69

 FREQUENCIES * CALCULATION OF NORMAL MODES FOR DF-MP2-F12


 Atomic Coordinates

  Nr  Atom  Charge       X              Y              Z

   1   H     1.00    0.000000000    0.000000000    1.362034102
   2   H     1.00    0.000000000    0.000000000   -0.039225815

 Normal Modes

                              1 B3g       2 Err       3 Err
 Wavenumbers [cm-1]          391.99      391.99     4438.69
 Intensities [km/mol]          0.00        0.00        0.00
 Intensities [relative]        0.00        0.00        0.00
           HX1              0.00000     0.70436     0.00000
           HY1              0.70436    -0.00000    -0.00000
           HZ1             -0.00000     0.00000     0.70436
           HX2             -0.00000    -0.70436    -0.00000
           HY2             -0.70436     0.00000     0.00000
           HZ2             -0.00000     0.00000    -0.70436


 Normal Modes of imaginary frequencies

                                  1
 Wavenumbers [cm-1]            0.00
 Intensities [km/mol]          0.00
 Intensities [relative]        0.00
           HX1             -0.00001
           HY1             -0.00001
           HZ1              0.70436
           HX2             -0.00001
           HY2             -0.00001
           HZ2              0.70436


 Normal Modes of low/zero frequencies

                                  1           2
 Wavenumbers [cm-1]            0.00        0.00
 Intensities [km/mol]          0.00        0.00
 Intensities [relative]        0.00        0.00
           HX1              0.70436     0.00017
           HY1             -0.00017     0.70436
           HZ1              0.00001     0.00001
           HX2              0.70436     0.00017
           HY2             -0.00017     0.70436
           HZ2              0.00001     0.00001


 Frequencies dumped to record   5400.2

 Zero point energy:  0.01189810 [H]     2611.33 [1/CM]       31.24 [KJ/MOL]
 Frequency information read from record  5400.2

 Recomputing wavefunction at initial geometry


 **********************************************************************************************************************************
 DATASETS  * FILE   NREC   LENGTH (MB)   RECORD NAMES
              1      19       28.85       500      610      700      900      950      970     1000      129      960     1100   
                                          VAR    BASINP    GEOM    SYMINP    ZMAT    AOBASIS   BASIS     P2S    ABASIS      S 
                                         1400     1410     1200     1210     1080     1600     1650     1700    55555   
                                           T        V       H0       H01     AOSYM     SMH    MOLCAS    OPER      MP2  

              2       9        0.59       700     1000      520     2100    57001     8500     5300     5450     5400   
                                         GEOM     BASIS   MCVARS     RHF              CPHF     HESS     NMOD     FREQ   

 PROGRAMS   *        TOTAL      FREQ   MP2-F12     DF-HF       INT
 CPU TIMES  *         9.54      7.96      0.94      0.25      0.25
 REAL TIME  *        13.38 SEC
 DISK USED  *       541.90 MB (local),        4.23 GB (total)
 SF USED    *       511.94 MB
 GA USED    *         0.00 MB       (max)       0.00 MB       (current)
 **********************************************************************************************************************************

 DF-MP2-F12/cc-pVQZ-F12 energy=     -1.167846336632

      DF-MP2-F12           DF-HF
     -1.16784634     -1.13358506
 **********************************************************************************************************************************
 Molpro calculation terminated
