
 Working directory              : /scratch/emmanous/h2.CCSDt.anopVTZ.com.19924/molpro.YQQExpNecp/
 Global scratch directory       : /scratch/emmanous/h2.CCSDt.anopVTZ.com.19924/molpro.YQQExpNecp/
 Wavefunction directory         : /home/emmanous/wfu/
 Main file repository           : /scratch/emmanous/h2.CCSDt.anopVTZ.com.19924/molpro.YQQExpNecp/

 id        : wis

 Nodes     nprocs
 cff164       8
 GA implementation: MPI file
 GA implementation (serial work in mppx): MPI file

 Using DEFAULT tuning parameter for ncache   :   16384
 Using DEFAULT tuning parameter for mflopdgm :   10000
 Using DEFAULT tuning parameter for mflopdgv :    4000
 Using DEFAULT tuning parameter for mflopmxm :    5000
 Using DEFAULT tuning parameter for mflopmxv :    4000
 Using DEFAULT tuning parameter for mindgm   :       1
 Using DEFAULT tuning parameter for mindgc   :       4
 Using DEFAULT tuning parameter for mindgf   :    5000
 Using DEFAULT tuning parameter for mindgl   :       4
 Using DEFAULT tuning parameter for mindgr   :       1
 Using DEFAULT tuning parameter for mindgv   :      20
 Using DEFAULT tuning parameter for mincuda  :     500
 Using DEFAULT tuning parameter for mxmblk   :      64
 Using DEFAULT tuning parameter for mxmbln   :      64
 Using DEFAULT tuning parameter for nroll    :       2
 Using custom tuning parameter for ngpus     :       0
 Using customized tuning parameters: mindgm=1; mindgv=20; mindgc=4; mindgr=1; noblas=0; minvec=7

 Fortran compiler: integer size=8, double size=8, logical size=8
 default implementation of scratch files=sf  


 Variables initialized (1015), CPU time= 0.01 sec
 gthresh,energy=1d-12,gradient=1d-6,twoint=1d-18,prefac=1d-20
 noorient
 charge=0
 multiplicity=1
 geomtyp=xyz
 geom={
  H          0.0000000000        0.0000000000        0.7210592052
  H          0.0000000000        0.0000000000       -0.0210592052
 }
 MASS,ISO
 MASS,PRINT
 
 basis={
 Including file /gpfs01/work/emmanous/6Frequencies/implementation/MOLPRO/MP2_ano-pV5Z_and_CCSDt_MP2_ano-pVTZ/EXAMPLE_H2/ano-pVTZ.mbas
 }
 hf
 ccsd(t)
 {freq,print=3;noproject}
 Commands initialized (834), CPU time= 0.01 sec, 672 directives.
 Default parameters read. Elapsed time= 0.07 sec

 Using DEFAULT tuning parameter for mpplat   :       3
 Using DEFAULT tuning parameter for mppspeed :    1600
 Checking input...
 Passed
1


                                         ***  PROGRAM SYSTEM MOLPRO  ***
                                       Copyright, TTI GmbH Stuttgart, 2015
                                    Version 2022.2 linked Thu May  5 23:39:45 2022


 **********************************************************************************************************************************
 LABEL *                                                                                 
  64 bit mpp version                                                                     DATE: 12-Aug-23          TIME: 07:49:11  
 **********************************************************************************************************************************

 SHA1:             518bf5c5e315925380b88506c70af759aa1d1d96
 **********************************************************************************************************************************

 Memory per process:      1500 MW
 Total memory per node:  12000 MW

 GA preallocation disabled
 GA check disabled

 Variable memory set to 1500.0 MW


 THRESHOLDS:

 ZERO    =  1.00D-12  ONEINT  =  1.00D-12  TWOINT  =  1.00D-18  PREFAC  =  1.00D-20  XXXXXX  =  1.00D-09  EORDER  =  1.00D-04
 ENERGY  =  1.00D-12  ETEST   =  0.00D+00  EDENS   =  0.00D+00  THRDEDEF=  1.00D-06  GRADIENT=  1.00D-06  STEP    =  1.00D-03
 ORBITAL =  1.00D-05  CIVEC   =  1.00D-05  COEFF   =  1.00D-04  PRINTCI =  5.00D-02  PUNCHCI =  9.90D+01  OPTGRAD =  3.00D-04
 OPTENERG=  1.00D-06  OPTSTEP =  3.00D-04  THRGRAD =  1.00D-10  COMPRESS=  1.00D-11  VARMIN  =  1.00D-07  VARMAX  =  1.00D-03
 THRDOUB =  0.00D+00  THRDIV  =  1.00D-05  THRRED  =  1.00D-07  THRPSP  =  1.00D+00  THRDC   =  1.00D-10  THRCS   =  1.00D-10
 THRNRM  =  1.00D-08  THREQ   =  0.00D+00  THRDE   =  1.00D+00  THRREF  =  1.00D-05  SPARFAC =  1.00D+00  THRDLP  =  1.00D-07
 THRDIA  =  1.00D-10  THRDLS  =  1.00D-07  THRGPS  =  0.00D+00  THRKEX  =  0.00D+00  THRDIS  =  2.00D-01  THRVAR  =  1.00D-10
 THRLOC  =  1.00D-06  THRGAP  =  1.00D-06  THRLOCT = -1.00D+00  THRGAPT = -1.00D+00  THRORB  =  1.00D-06  THRMLTP =  0.00D+00
 THRCPQCI=  1.00D-10  KEXTA   =  0.00D+00  THRCOARS=  0.00D+00  SYMTOL  =  1.00D-06  GRADTOL =  1.00D-06  THROVL  =  1.00D-08
 THRORTH =  1.00D-08  THRDLOVL= -1.00D+00  GRID    =  1.00D-06  GRIDMAX =  1.00D-03  DTMAX   =  0.00D+00  THROCCDE=  1.00D-01
 THROCCDE=  1.00D-01  THRPRINT=  2.50D-01

 SETTING CHARGE         =      0.0000000D+00                                  
 SETTING MULTIPLICITY   =         1.00000000                                  
 SETTING GEOMTYP        =    XYZ


 Using masses of most abundant isotopes

 **********************************************************************************************************************************


 Atomic masses

 Center       Mass
 H          1.00782
 H          1.00782
 SETTING BASIS          =    USERDEF


 Recomputing integrals since basis changed


 Using spherical harmonics



 PROGRAM * SEWARD (Integral evaluation for generally contracted gaussian basis sets)     Author: Roland Lindh, 1990

 Geometry written to block  1 of record 700


 Point group  C2v 



 ATOMIC COORDINATES

 NR  ATOM    CHARGE       X              Y              Z

   1  H       1.00    0.000000000    0.000000000    1.362604417
   2  H       1.00    0.000000000    0.000000000   -0.039796130

 Bond lengths in Bohr (Angstrom)

 1-2  1.402400548
     ( 0.742118410)

 NUCLEAR CHARGE:                    2
 NUMBER OF PRIMITIVE AOS:         100
 NUMBER OF SYMMETRY AOS:           92
 NUMBER OF CONTRACTIONS:           28   (   14A1  +    6B1  +    6B2  +    2A2  )
 NUMBER OF INNER CORE ORBITALS:     0   (    0A1  +    0B1  +    0B2  +    0A2  )
 NUMBER OF OUTER CORE ORBITALS:     0   (    0A1  +    0B1  +    0B2  +    0A2  )
 NUMBER OF VALENCE ORBITALS:        2   (    2A1  +    0B1  +    0B2  +    0A2  )


 NUCLEAR REPULSION ENERGY    0.71306304

 EXTRA SYMMETRY OF AOS IN SYMMETRY 1:   1 1 1 1 1 1 2 1 1 1   1 1 1 2

 Eigenvalues of metric

         1 0.732E-03 0.418E-01 0.467E-01 0.487E+00 0.490E+00 0.658E+00 0.761E+00 0.120E+01
         2 0.255E-01 0.498E+00 0.690E+00 0.136E+01 0.143E+01 0.200E+01
         3 0.255E-01 0.498E+00 0.690E+00 0.136E+01 0.143E+01 0.200E+01
         4 0.487E+00 0.151E+01


 Contracted 2-electron integrals neglected if value below      1.0D-18
 AO integral compression algorithm  1   Integral accuracy      1.0D-18

     2.097 MB (compressed) written to integral file (100.0%)

     Node minimum: 0.262 MB, node maximum: 0.262 MB


 NUMBER OF SORTED TWO-ELECTRON INTEGRALS:       2666.     BUFFER LENGTH:  32768
 NUMBER OF SEGMENTS:   1  SEGMENT LENGTH:       2666      RECORD LENGTH: 524288

 Memory used in sort:       0.56 MW

 SORT1 READ       32016. AND WROTE        2332. INTEGRALS IN      1 RECORDS. CPU TIME:     0.00 SEC, REAL TIME:     0.01 SEC
 SORT2 READ       21117. AND WROTE       24933. INTEGRALS IN      8 RECORDS. CPU TIME:     0.00 SEC, REAL TIME:     0.00 SEC

 Node minimum:        2380.  Node maximum:        3821. integrals

 OPERATOR DM      FOR CENTER  0  COORDINATES:    0.000000    0.000000    0.000000


 **********************************************************************************************************************************
 DATASETS  * FILE   NREC   LENGTH (MB)   RECORD NAMES
              1      18       28.81       500      610      700      900      950      970     1000      129      960     1100   
                                          VAR    BASINP    GEOM    SYMINP    ZMAT    AOBASIS   BASIS     P2S    ABASIS      S 
                                         1400     1410     1200     1210     1080     1600     1650     1700   
                                           T        V       H0       H01     AOSYM     SMH    MOLCAS    OPER   

 PROGRAMS   *        TOTAL       INT
 CPU TIMES  *         0.47      0.33
 REAL TIME  *         1.38 SEC
 DISK USED  *        29.09 MB (local),      264.98 MB (total)
 GA USED    *         0.00 MB       (max)       0.00 MB       (current)
 **********************************************************************************************************************************


 Program * Restricted Hartree-Fock

 Orbital guess generated from atomic densities.

 Initial occupancy:   1   0   0   0

 NELEC=    2   SYM=1   MS2= 0   THRE=1.0D-12   THRD=1.0D-06   THRG=1.0D-06  HFMA2=F  DIIS_START=2   DIIS_MAX=10   DIIS_INCORE=F

 Level shifts:    0.00 (CLOSED)    0.00 (OPEN)    0.30 (GAP_MIN)

 ITER           ETOT              DE          GRAD        DDIFF     DIIS  NEXP   TIME(IT)  TIME(TOT)  DIAG
   1       -1.13217657      -1.13217657     0.00D+00     0.82D-01     0     0       0.00      0.01    start
   2       -1.13337558      -0.00119900     0.71D-02     0.22D-02     1     0       0.00      0.01    diag
   3       -1.13340885      -0.00003328     0.11D-02     0.43D-03     2     0       0.00      0.01    diag
   4       -1.13340898      -0.00000012     0.82D-04     0.28D-04     3     0       0.00      0.01    diag
   5       -1.13340898      -0.00000000     0.12D-05     0.81D-06     4     0       0.00      0.01    diag
   6       -1.13340898      -0.00000000     0.10D-06     0.50D-07     5     0       0.00      0.01    diag
   7       -1.13340898       0.00000000     0.71D-08     0.21D-08     0     0       0.00      0.01    diag

 Final occupancy:   1   0   0   0

 !RHF STATE 1.1 Energy                 -1.133408976183
  RHF One-electron energy              -2.503466844520
  RHF Two-electron energy               0.656994826797
  RHF Kinetic energy                    1.120249466392
  RHF Nuclear energy                    0.713063041540
  RHF Virial quotient                  -1.011746945824

 !RHF STATE 1.1 Dipole moment           0.00000000     0.00000000    -0.00000000
 Dipole moment /Debye                   0.00000000     0.00000000    -0.00000000

 Orbital energies:

           1.1          2.1          3.1
     -0.594739     0.243668     0.499852

           1.2          2.2
      0.579603     1.088562

           1.3          2.3
      0.579603     1.088562

           1.4          2.4
      2.104155     3.147451


 HOMO      1.1    -0.594739 =     -16.1837eV
 LUMO      2.1     0.243668 =       6.6305eV
 LUMO-HOMO         0.838406 =      22.8142eV

 Orbitals saved in record  2100.2


 **********************************************************************************************************************************
 DATASETS  * FILE   NREC   LENGTH (MB)   RECORD NAMES
              1      18       28.81       500      610      700      900      950      970     1000      129      960     1100   
                                          VAR    BASINP    GEOM    SYMINP    ZMAT    AOBASIS   BASIS     P2S    ABASIS      S 
                                         1400     1410     1200     1210     1080     1600     1650     1700   
                                           T        V       H0       H01     AOSYM     SMH    MOLCAS    OPER   

              2       4        0.37       700     1000      520     2100   
                                         GEOM     BASIS   MCVARS     RHF  

 PROGRAMS   *        TOTAL    HF-SCF       INT
 CPU TIMES  *         0.59      0.12      0.33
 REAL TIME  *         1.66 SEC
 DISK USED  *        29.24 MB (local),      266.20 MB (total)
 GA USED    *         0.00 MB       (max)       0.00 MB       (current)
 **********************************************************************************************************************************


 PROGRAM * CCSD (Closed-shell coupled cluster)     Authors: C. Hampel, H.-J. Werner, 1991, M. Deegan, P.J. Knowles, 1992


 Convergence thresholds:  THRVAR = 1.00D-16  THRDEN = 1.00D-12

 CCSD(T)     terms to be evaluated (factor= 1.000)


 Using ITF CCSD(T) gradient implementation

 Number of closed-shell orbitals:   1 (   1   0   0   0 )
 Number of external orbitals:      27 (  13   6   6   2 )

 Molecular orbitals read from record     2100.2  Type=RHF/CANONICAL  

 Integral transformation finished. Total CPU:   0.00 sec, npass=  1  Memory used:   0.07 MW
 Time for re-packing tensors:             0.00 sec
  Reference energy                     -1.133408976183

  MP2 correlation energy               -0.031880198436
  MP2 total energy                     -1.165289174619

 ITER.      SQ.NORM     CORR.ENERGY   TOTAL ENERGY   ENERGY CHANGE        DEN1      VAR(S)    VAR(P)  DIIS     TIME
   1      1.01488803    -0.03878316    -1.17219213    -0.00690296    -0.00496403  3.70e-05  5.14e-04  1  1     0.00
   2      1.01692081    -0.03953368    -1.17294265    -0.00075052    -0.00173297  4.57e-06  8.40e-05  2  2     0.01
   3      1.01797663    -0.03965610    -1.17306508    -0.00012242    -0.00076463  9.78e-08  9.06e-06  3  3     0.01
   4      1.01826376    -0.03965465    -1.17306362     0.00000145    -0.00020896  2.44e-08  1.08e-06  4  4     0.01
   5      1.01838248    -0.03965263    -1.17306160     0.00000202    -0.00007430  7.15e-10  8.08e-08  5  5     0.01
   6      1.01841221    -0.03965138    -1.17306035     0.00000125    -0.00001972  1.57e-11  4.16e-09  6  0     0.02
   7      1.01841835    -0.03965102    -1.17305999     0.00000036    -0.00000470  2.59e-13  2.17e-10  6  1     0.02
   8      1.01841966    -0.03965093    -1.17305991     0.00000009    -0.00000107  8.69e-15  1.13e-11  6  2     0.02
   9      1.01841996    -0.03965091    -1.17305989     0.00000002    -0.00000025  1.30e-15  6.01e-13  6  3     0.02
  10      1.01842003    -0.03965091    -1.17305988     0.00000000    -0.00000006  1.35e-16  3.20e-14  6  4     0.02
  11      1.01842004    -0.03965091    -1.17305988     0.00000000    -0.00000001  5.93e-18  1.76e-15  6  5     0.02
  12      1.01842004    -0.03965091    -1.17305988     0.00000000    -0.00000000  3.93e-19  1.07e-16  6  0     0.03
  13      1.01842005    -0.03965091    -1.17305988     0.00000000    -0.00000000  2.66e-20  7.23e-18  6  1     0.03
  14      1.01842005    -0.03965091    -1.17305988     0.00000000    -0.00000000  1.38e-21  4.27e-19  6  2     0.03
  15      1.01842005    -0.03965091    -1.17305988     0.00000000    -0.00000000  2.49e-23  2.41e-20  6  3     0.03
  16      1.01842005    -0.03965091    -1.17305988     0.00000000    -0.00000000  1.68e-24  1.25e-21           0.03

 Norm of t1 vector:      0.01032857     S-energy:      0.00000000   T1 diagnostic:  0.00516428

 Time per iteration:                      0.00 sec

 RESULTS
 =======

  Reference energy                     -1.133408976183
  CCSD correlation energy              -0.039650906187
  CCSD total energy                    -1.173059882370

  Triples (T) contribution              0.000000000000
  Total correlation energy             -0.039650906187
  CCSD[T] total energy                 -1.173059882370
 !CCSD(T) total energy                 -1.173059882370

 Starting CP-CCSD(T) iterations.   Author: W. Gyorffy (2015)

 ITER.      NRM1           NRM2      VAR(S)+VAR(P)   DIIS    TIME
   1     0.00010205     0.01785323     3.15e-06      1  1    0.00
   2     0.00009866     0.01773091     2.61e-07      2  2    0.00
   3     0.00009725     0.01768175     2.59e-08      3  3    0.00
   4     0.00009664     0.01766074     9.56e-10      4  4    0.00
   5     0.00009653     0.01765742     3.92e-11      5  5    0.00
   6     0.00009650     0.01765692     4.21e-13      6  0    0.01
   7     0.00009650     0.01765689     4.15e-15      6  1    0.01
   8     0.00009650     0.01765689     1.24e-16      6  2    0.01
   9     0.00009650     0.01765689     3.83e-18      6  3    0.01
  10     0.00009650     0.01765689     6.51e-20      6  4    0.01
  11     0.00009650     0.01765689     1.37e-21              0.01


 Time per iteration:                      0.00 sec

 CPHF start vector      0.2 not found

 Starting Coupled-perturbed Hartree-Fock, convergence threshold= 1.0D-06

 ITER  FOCK  DIIS      VAR         VARC       CPU
   1     0     1    0.12D-07    0.00D+00     0.00

 CPHF convergence reached in  0 macroiterations and    0 microiterations.   Accuracy: 1.2197D-08

 CPHF solution written to record  8500.2

 Dipole moments (unrelaxed):            0.00000000     0.00000000    -0.00000000
 Orbital relaxation contribution:      -0.00000000    -0.00000000    -0.00000000
 !CCSD(T) STATE 1.1 Dipole moment       0.00000000     0.00000000    -0.00000000
 Dipole moment /Debye                   0.00000000     0.00000000    -0.00000000

 CPU-time for coupled-perturbed hartree-fock:          0.00 sec

 Number of N-1 electron functions:               1
 Number of N-2 electron functions:               1
 Number of singly external CSFs:                13
 Number of doubly external CSFs:               136
 Total number of CSFs:                         150

 CCSD(T) gradient info saved on record        55555.1




 **********************************************************************************************************************************
 DATASETS  * FILE   NREC   LENGTH (MB)   RECORD NAMES
              1      21       28.89       500      610      700      900      950      970     1000      129      960     1100   
                                          VAR    BASINP    GEOM    SYMINP    ZMAT    AOBASIS   BASIS     P2S    ABASIS      S 
                                         1400     1410     1200     1210     1080     1600     1650     1700     1380     3791   
                                           T        V       H0       H01     AOSYM     SMH    MOLCAS    OPER     JKOP   
                                        55555   
                                        CCSD(T)    

              2       5        0.38       700     1000      520     2100     8500   
                                         GEOM     BASIS   MCVARS     RHF     CPHF   

 PROGRAMS   *        TOTAL   CCSD(T)    HF-SCF       INT
 CPU TIMES  *         0.74      0.15      0.12      0.33
 REAL TIME  *         1.83 SEC
 DISK USED  *        29.31 MB (local),      266.77 MB (total)
 SF USED    *         0.57 MB
 GA USED    *         0.00 MB       (max)       0.00 MB       (current)
 **********************************************************************************************************************************


 PROGRAM * HESSIAN

 *** Long output written to logfile /gpfs01/work/emmanous/6Frequencies/implementation/MOLPRO/MP2_ano-pV5Z_and_CCSDt_MP2_ano-pVTZ/EXAMPLE_H2/h2.CCSDt.anopVTZ.log ***


 Computing numerical hessian using default procedure for command CCSD(T)

 Symmetry elements for unique displacements: X  Y  

 Using AUTO symmetry option

 Running default procedure: HF-SCF000  CCSD(T)


 Numerically approximating hessian using central gradient differences

 Task list generated. Total number of displacements:      8

 All   8 tasks completed.  CPU=      1.52 sec, Elapsed=      1.64 sec.

 CCSD(T) hessian saved to record  5300.2

 PROGRAM * FREQUENCIES (Calculation of harmonic vibrational spectra for CCSD(T))


 Permanent Dipole Moment [debye]
   1-  3    0.000000    0.000000    0.000000

 Dipole Moment Norm    0.0000000 [debye]

 Dipole Moment Derivatives [debye/ang]
              1             2             3             4             5             6
    1    0.00000062    0.00000000    0.00000000    0.00000062    0.00000000    0.00000000
    2    0.00000000    0.00000062    0.00000000    0.00000000    0.00000062    0.00000000
    3    0.00000000    0.00000000    0.00000000    0.00000000    0.00000000    0.00000000

 Force Constants (Second Derivatives of the Energy) in [a.u.]
                             HX1         HY1         HZ1         HX2         HY2     
           HX1          -0.0010923
           HY1           0.0000000  -0.0010923
           HZ1           0.0000000   0.0000000   0.3787763
           HX2           0.0010923   0.0000000   0.0000000  -0.0010923
           HY2           0.0000000   0.0010923   0.0000000   0.0000000  -0.0010923
           HZ2           0.0000000   0.0000000  -0.3787763   0.0000000   0.0000000
                             HZ2     
           HZ2           0.3787763


 Atomic Masses
   1-  2    1.007825    1.007825

 Mass weighted Second Derivative Matrix
                             HX1         HY1         HZ1         HX2         HY2     
           HX1          -0.0010839
           HY1           0.0000000  -0.0010839
           HZ1           0.0000000   0.0000000   0.3758354
           HX2           0.0010839   0.0000000   0.0000000  -0.0010839
           HY2           0.0000000   0.0010839   0.0000000   0.0000000  -0.0010839
           HZ2           0.0000000   0.0000000  -0.3758354   0.0000000   0.0000000
                             HZ2     
           HZ2           0.3758354


 Mass Weighted 2nd Derivative Matrix Eigenvalues
   1-  6   -0.002168   -0.002168    0.000000    0.000000    0.000000    0.751671

 Mass Weighted 2nd Derivative Matrix Eigenvectors
              1             2             3             4             5             6
    1    0.00000000    0.70710678    0.70710678    0.00000000    0.00000000    0.00000000
    2    0.70710678    0.00000000    0.00000000    0.70710678    0.00000000    0.00000000
    3    0.00000000    0.00000000    0.00000000    0.00000000    0.70710678    0.70710678
    4    0.00000000   -0.70710678    0.70710678    0.00000000    0.00000000    0.00000000
    5   -0.70710678    0.00000000    0.00000000    0.70710678    0.00000000    0.00000000
    6    0.00000000    0.00000000    0.00000000    0.00000000    0.70710678   -0.70710678

 Imaginary Vibration  Wavenumber
        Nr             [1/cm] 
        1              239.34
        2              239.34

   Low Vibration      Wavenumber
        Nr             [1/cm] 
        1                0.00
        2                0.00
        3                0.00

     Vibration        Wavenumber
        Nr             [1/cm] 
        1             4456.75

 FREQUENCIES * CALCULATION OF NORMAL MODES FOR CCSD(T)


 Atomic Coordinates

  Nr  Atom  Charge       X              Y              Z

   1   H     1.00    0.000000000    0.000000000    1.362604417
   2   H     1.00    0.000000000    0.000000000   -0.039796130

 Normal Modes

                              1 Ag 
 Wavenumbers [cm-1]         4456.75
 Intensities [km/mol]          0.00
 Intensities [relative]        0.00
           HX1             -0.00000
           HY1             -0.00000
           HZ1              0.70436
           HX2             -0.00000
           HY2             -0.00000
           HZ2             -0.70436


 Normal Modes of imaginary frequencies

                                  1           2
 Wavenumbers [cm-1]          239.34      239.34
 Intensities [km/mol]          0.00        0.00
 Intensities [relative]        0.00        0.00
           HX1             -0.00000     0.70436
           HY1              0.70436     0.00000
           HZ1              0.00000     0.00000
           HX2              0.00000    -0.70436
           HY2             -0.70436     0.00000
           HZ2              0.00000     0.00000


 Normal Modes of low/zero frequencies

                                  1           2           3
 Wavenumbers [cm-1]            0.00        0.00        0.00
 Intensities [km/mol]          0.00        0.00        0.00
 Intensities [relative]        0.00        0.00        0.00
           HX1              0.70436     0.00000     0.00000
           HY1             -0.00000     0.70436     0.00000
           HZ1             -0.00000     0.00000     0.70436
           HX2              0.70436     0.00000    -0.00000
           HY2             -0.00000     0.70436    -0.00000
           HZ2             -0.00000     0.00000     0.70436


 Frequencies dumped to record   5400.2

 Zero point energy:  0.01015322 [H]     2228.37 [1/CM]       26.66 [KJ/MOL]
 Frequency information read from record  5400.2

 Recomputing wavefunction at initial geometry


 **********************************************************************************************************************************
 DATASETS  * FILE   NREC   LENGTH (MB)   RECORD NAMES
              1      21       28.89       500      610      700      900      950      970     1000      129      960     1100   
                                          VAR    BASINP    GEOM    SYMINP    ZMAT    AOBASIS   BASIS     P2S    ABASIS      S 
                                         1400     1410     1200     1210     1080     1600     1650     1700     1380     3791   
                                           T        V       H0       H01     AOSYM     SMH    MOLCAS    OPER     JKOP   
                                        55555   
                                        CCSD(T)    

              2       8        0.38       700     1000      520     2100     8500     5300     5450     5400   
                                         GEOM     BASIS   MCVARS     RHF     CPHF     HESS     NMOD     FREQ   

 PROGRAMS   *        TOTAL      FREQ   CCSD(T)    HF-SCF       INT
 CPU TIMES  *         3.24      2.50      0.15      0.12      0.33
 REAL TIME  *         5.90 SEC
 DISK USED  *        34.37 MB (local),      305.44 MB (total)
 SF USED    *         0.58 MB
 GA USED    *         0.00 MB       (max)       0.00 MB       (current)
 **********************************************************************************************************************************

 CCSD(T)/USERDEF energy=     -1.173059882371

         CCSD(T)          HF-SCF
     -1.17305988     -1.13340898
 **********************************************************************************************************************************
 Molpro calculation terminated
