
Host: cff164

Timers On : Sat Aug 12 07:49:18 2023
Timers Off: Sat Aug 12 07:49:19 2023

Wall Time:        1.17 seconds

                                                       Time (seconds)
Module                                       User      System        Wall        Calls

--------------------------------------------------------------------------------------

**************************************************************************************
