
 Working directory              : /scratch/emmanous/c2h2.HF.def2QZVPPDprime.com.14559/molpro.5GsjMjvFzF/
 Global scratch directory       : /scratch/emmanous/c2h2.HF.def2QZVPPDprime.com.14559/molpro.5GsjMjvFzF/
 Wavefunction directory         : /home/emmanous/wfu/
 Main file repository           : /scratch/emmanous/c2h2.HF.def2QZVPPDprime.com.14559/molpro.5GsjMjvFzF/

 id        : wis

 Nodes     nprocs
 cff147       8
 GA implementation: MPI file
 GA implementation (serial work in mppx): MPI file

 Using DEFAULT tuning parameter for ncache   :   16384
 Using DEFAULT tuning parameter for mflopdgm :   10000
 Using DEFAULT tuning parameter for mflopdgv :    4000
 Using DEFAULT tuning parameter for mflopmxm :    5000
 Using DEFAULT tuning parameter for mflopmxv :    4000
 Using DEFAULT tuning parameter for mindgm   :       1
 Using DEFAULT tuning parameter for mindgc   :       4
 Using DEFAULT tuning parameter for mindgf   :    5000
 Using DEFAULT tuning parameter for mindgl   :       4
 Using DEFAULT tuning parameter for mindgr   :       1
 Using DEFAULT tuning parameter for mindgv   :      20
 Using DEFAULT tuning parameter for mincuda  :     500
 Using DEFAULT tuning parameter for mxmblk   :      64
 Using DEFAULT tuning parameter for mxmbln   :      64
 Using DEFAULT tuning parameter for nroll    :       2
 Using custom tuning parameter for ngpus     :       0
 Using customized tuning parameters: mindgm=1; mindgv=20; mindgc=4; mindgr=1; noblas=0; minvec=7

 Fortran compiler: integer size=8, double size=8, logical size=8
 default implementation of scratch files=sf  


 Variables initialized (1015), CPU time= 0.01 sec
 gthresh,energy=1d-12,gradient=1d-6,twoint=1d-18,prefac=1d-20
 noorient
 charge=0
 multiplicity=1
 geomtyp=xyz
 geom={
  H          0.0000000000        0.0000000000        1.6658381731
  C          0.0000000000        0.0000000000        0.6027502604
  C          0.0000000000        0.0000000000       -0.6027502604
  H          0.0000000000        0.0000000000       -1.6658381731
 }
 MASS,ISO
 MASS,PRINT
 
 basis,def2-QZVPPD,h=def2-QZVPP
 hf
 {freq,analytic,print=3;noproject}
 
 Commands initialized (834), CPU time= 0.01 sec, 672 directives.
 Default parameters read. Elapsed time= 0.07 sec

 Using DEFAULT tuning parameter for mpplat   :       3
 Using DEFAULT tuning parameter for mppspeed :    1600
 Checking input...
 Passed
1


                                         ***  PROGRAM SYSTEM MOLPRO  ***
                                       Copyright, TTI GmbH Stuttgart, 2015
                                    Version 2022.2 linked Thu May  5 23:39:45 2022


 **********************************************************************************************************************************
 LABEL *                                                                                 
  64 bit mpp version                                                                     DATE: 12-Aug-23          TIME: 11:28:39  
 **********************************************************************************************************************************

 SHA1:             518bf5c5e315925380b88506c70af759aa1d1d96
 **********************************************************************************************************************************

 Memory per process:      1500 MW
 Total memory per node:  12000 MW

 GA preallocation disabled
 GA check disabled

 Variable memory set to 1500.0 MW


 THRESHOLDS:

 ZERO    =  1.00D-12  ONEINT  =  1.00D-12  TWOINT  =  1.00D-18  PREFAC  =  1.00D-20  XXXXXX  =  1.00D-09  EORDER  =  1.00D-04
 ENERGY  =  1.00D-12  ETEST   =  0.00D+00  EDENS   =  0.00D+00  THRDEDEF=  1.00D-06  GRADIENT=  1.00D-06  STEP    =  1.00D-03
 ORBITAL =  1.00D-05  CIVEC   =  1.00D-05  COEFF   =  1.00D-04  PRINTCI =  5.00D-02  PUNCHCI =  9.90D+01  OPTGRAD =  3.00D-04
 OPTENERG=  1.00D-06  OPTSTEP =  3.00D-04  THRGRAD =  1.00D-10  COMPRESS=  1.00D-11  VARMIN  =  1.00D-07  VARMAX  =  1.00D-03
 THRDOUB =  0.00D+00  THRDIV  =  1.00D-05  THRRED  =  1.00D-07  THRPSP  =  1.00D+00  THRDC   =  1.00D-10  THRCS   =  1.00D-10
 THRNRM  =  1.00D-08  THREQ   =  0.00D+00  THRDE   =  1.00D+00  THRREF  =  1.00D-05  SPARFAC =  1.00D+00  THRDLP  =  1.00D-07
 THRDIA  =  1.00D-10  THRDLS  =  1.00D-07  THRGPS  =  0.00D+00  THRKEX  =  0.00D+00  THRDIS  =  2.00D-01  THRVAR  =  1.00D-10
 THRLOC  =  1.00D-06  THRGAP  =  1.00D-06  THRLOCT = -1.00D+00  THRGAPT = -1.00D+00  THRORB  =  1.00D-06  THRMLTP =  0.00D+00
 THRCPQCI=  1.00D-10  KEXTA   =  0.00D+00  THRCOARS=  0.00D+00  SYMTOL  =  1.00D-06  GRADTOL =  1.00D-06  THROVL  =  1.00D-08
 THRORTH =  1.00D-08  THRDLOVL= -1.00D+00  GRID    =  1.00D-06  GRIDMAX =  1.00D-03  DTMAX   =  0.00D+00  THROCCDE=  1.00D-01
 THROCCDE=  1.00D-01  THRPRINT=  2.50D-01

 SETTING CHARGE         =      0.0000000D+00                                  
 SETTING MULTIPLICITY   =         1.00000000                                  
 SETTING GEOMTYP        =    XYZ


 Using masses of most abundant isotopes

 **********************************************************************************************************************************


 Atomic masses

 Center       Mass
 H          1.00782
 C         12.00000
 C         12.00000
 H          1.00782
 SETTING BASIS          =    DEF2-QZVPPD,H=DEF2-QZVPP


 Recomputing integrals since basis changed


 Using spherical harmonics

 Library entry H      S def2-QZVPP           selected for orbital group  1
 Library entry H      P def2-QZVPP           selected for orbital group  1
 Library entry H      D def2-QZVPP           selected for orbital group  1
 Library entry H      F def2-QZVPP           selected for orbital group  1
 Library entry C      S def2-QZVPPD          selected for orbital group  2
 Library entry C      P def2-QZVPPD          selected for orbital group  2
 Library entry C      D def2-QZVPPD          selected for orbital group  2
 Library entry C      F def2-QZVPPD          selected for orbital group  2
 Library entry C      G def2-QZVPPD          selected for orbital group  2


 PROGRAM * SEWARD (Integral evaluation for generally contracted gaussian basis sets)     Author: Roland Lindh, 1990

 Geometry written to block  1 of record 700


 Point group  D2h 



 ATOMIC COORDINATES

 NR  ATOM    CHARGE       X              Y              Z

   1  H       1.00    0.000000000    0.000000000    3.147977915
   2  H       1.00    0.000000000    0.000000000   -3.147977915
   3  C       6.00    0.000000000    0.000000000    1.139032914
   4  C       6.00    0.000000000    0.000000000   -1.139032914

 Bond lengths in Bohr (Angstrom)

 1-3  2.008945001  2-4  2.008945001  3-4  2.278065827
     ( 1.063087913)     ( 1.063087913)     ( 1.205500521)

 Bond angles

  1-3-4  179.99999774   2-4-3  179.99999774

 NUCLEAR CHARGE:                   14
 NUMBER OF PRIMITIVE AOS:         274
 NUMBER OF SYMMETRY AOS:          232
 NUMBER OF CONTRACTIONS:          186   (   40Ag  +   21B3u +   21B2u +   11B1g +   40B1u +   21B2g +   21B3g +   11Au  )
 NUMBER OF INNER CORE ORBITALS:     0   (    0Ag  +    0B3u +    0B2u +    0B1g +    0B1u +    0B2g +    0B3g +    0Au  )
 NUMBER OF OUTER CORE ORBITALS:     2   (    1Ag  +    0B3u +    0B2u +    0B1g +    1B1u +    0B2g +    0B3g +    0Au  )
 NUMBER OF VALENCE ORBITALS:       10   (    3Ag  +    1B3u +    1B2u +    0B1g +    3B1u +    1B2g +    1B3g +    0Au  )


 NUCLEAR REPULSION ENERGY   24.73414938

 EXTRA SYMMETRY OF AOS IN SYMMETRY 1:   1 1 1 1 1 1 1 1 2 1   2 1 2 1 1 1 1 1 1 1   1 1 1 1 1 1 2 1 2 1   2 1 2 1 2 1 2 1 3 2
 EXTRA SYMMETRY OF AOS IN SYMMETRY 2:   1 1 1 1 1 1 2 1 1 1   1 1 1 1 1 1 2 1 2 1   2
 EXTRA SYMMETRY OF AOS IN SYMMETRY 3:   1 1 1 1 1 1 2 1 1 1   1 1 1 1 1 1 2 1 2 1   2
 EXTRA SYMMETRY OF AOS IN SYMMETRY 4:   1 1 1 1 1 1 1 1 1 1   2
 EXTRA SYMMETRY OF AOS IN SYMMETRY 5:   1 1 1 1 1 1 1 1 2 1   2 1 2 1 1 1 1 1 1 1   1 1 1 1 1 1 2 1 2 1   2 1 2 1 2 1 2 1 3 2
 EXTRA SYMMETRY OF AOS IN SYMMETRY 6:   1 1 1 1 1 1 2 1 1 1   1 1 1 1 1 1 2 1 2 1   2
 EXTRA SYMMETRY OF AOS IN SYMMETRY 7:   1 1 1 1 1 1 2 1 1 1   1 1 1 1 1 1 2 1 2 1   2
 EXTRA SYMMETRY OF AOS IN SYMMETRY 8:   1 1 1 1 1 1 1 1 1 1   2

 Eigenvalues of metric

         1 0.134E-03 0.415E-03 0.105E-02 0.182E-02 0.207E-02 0.503E-02 0.733E-02 0.197E-01
         2 0.646E-02 0.227E-01 0.398E-01 0.104E+00 0.144E+00 0.241E+00 0.280E+00 0.398E+00
         3 0.646E-02 0.227E-01 0.398E-01 0.104E+00 0.144E+00 0.241E+00 0.280E+00 0.398E+00
         4 0.155E+00 0.188E+00 0.408E+00 0.540E+00 0.670E+00 0.107E+01 0.119E+01 0.138E+01
         5 0.141E-04 0.534E-04 0.117E-03 0.197E-03 0.447E-03 0.188E-02 0.264E-02 0.743E-02
         6 0.415E-03 0.102E-02 0.373E-02 0.655E-02 0.386E-01 0.923E-01 0.190E+00 0.309E+00
         7 0.415E-03 0.102E-02 0.373E-02 0.655E-02 0.386E-01 0.923E-01 0.190E+00 0.309E+00
         8 0.479E-01 0.677E-01 0.120E+00 0.222E+00 0.400E+00 0.602E+00 0.712E+00 0.927E+00


 Contracted 2-electron integrals neglected if value below      1.0D-18
 AO integral compression algorithm  1   Integral accuracy      1.0D-18

     196.870 MB (compressed) written to integral file ( 84.6%)

     Node minimum: 18.350 MB, node maximum: 31.195 MB


 NUMBER OF SORTED TWO-ELECTRON INTEGRALS:    2445401.     BUFFER LENGTH:  32768
 NUMBER OF SEGMENTS:   1  SEGMENT LENGTH:    2445401      RECORD LENGTH: 524288

 Memory used in sort:       3.00 MW

 SORT1 READ    29100640. AND WROTE     2091700. INTEGRALS IN      6 RECORDS. CPU TIME:     0.95 SEC, REAL TIME:     1.10 SEC
 SORT2 READ    16976363. AND WROTE    19711985. INTEGRALS IN    560 RECORDS. CPU TIME:     0.07 SEC, REAL TIME:     0.09 SEC

 Node minimum:     2445401.  Node maximum:     2478532. integrals

 OPERATOR DM      FOR CENTER  0  COORDINATES:    0.000000    0.000000    0.000000


 **********************************************************************************************************************************
 DATASETS  * FILE   NREC   LENGTH (MB)   RECORD NAMES
              1      18       28.85       500      610      700      900      950      970     1000      129      960     1100   
                                          VAR    BASINP    GEOM    SYMINP    ZMAT    AOBASIS   BASIS     P2S    ABASIS      S 
                                         1400     1410     1200     1210     1080     1600     1650     1700   
                                           T        V       H0       H01     AOSYM     SMH    MOLCAS    OPER   

 PROGRAMS   *        TOTAL       INT
 CPU TIMES  *         2.00      1.88
 REAL TIME  *         3.16 SEC
 DISK USED  *        29.21 MB (local),      616.82 MB (total)
 GA USED    *         0.00 MB       (max)       0.00 MB       (current)
 **********************************************************************************************************************************


 Program * Restricted Hartree-Fock

 Orbital guess generated from atomic densities.

 Initial occupancy:   3   1   1   0   2   0   0   0

 NELEC=   14   SYM=1   MS2= 0   THRE=1.0D-12   THRD=1.0D-06   THRG=1.0D-06  HFMA2=F  DIIS_START=2   DIIS_MAX=10   DIIS_INCORE=F

 Level shifts:    0.00 (CLOSED)    0.00 (OPEN)    0.30 (GAP_MIN)

 ITER           ETOT              DE          GRAD        DDIFF     DIIS  NEXP   TIME(IT)  TIME(TOT)  DIAG
   1      -76.83931799     -76.83931799     0.00D+00     0.32D-01     0     0       0.00      0.02    start
   2      -76.85346450      -0.01414652     0.81D-02     0.30D-02     1     0       0.01      0.03    diag
   3      -76.85482835      -0.00136385     0.25D-02     0.62D-03     2     0       0.00      0.03    diag
   4      -76.85495672      -0.00012837     0.51D-03     0.22D-03     3     0       0.01      0.04    diag
   5      -76.85496251      -0.00000579     0.11D-03     0.53D-04     4     0       0.00      0.04    diag
   6      -76.85496273      -0.00000022     0.19D-04     0.12D-04     5     0       0.01      0.05    diag
   7      -76.85496273      -0.00000000     0.25D-05     0.13D-05     6     0       0.01      0.06    diag
   8      -76.85496273      -0.00000000     0.35D-06     0.30D-06     7     0       0.00      0.06    fixocc
   9      -76.85496273      -0.00000000     0.26D-07     0.38D-07     8     0       0.01      0.07    diag
  10      -76.85496273      -0.00000000     0.22D-08     0.35D-08     0     0       0.00      0.07    diag/orth

 Final occupancy:   3   1   1   0   2   0   0   0

 !RHF STATE 1.1 Energy                -76.854962732582
  RHF One-electron energy            -151.612383870713
  RHF Two-electron energy              50.023271753906
  RHF Kinetic energy                   76.686236984996
  RHF Nuclear energy                   24.734149384225
  RHF Virial quotient                  -1.002200208984

 !RHF STATE 1.1 Dipole moment           0.00000000     0.00000000     0.00000000
 Dipole moment /Debye                   0.00000000     0.00000000     0.00000000

 Orbital energies:

           1.1          2.1          3.1          4.1          5.1
    -11.243595    -1.029473    -0.681215     0.057509     0.160055

           1.2          2.2          3.2
     -0.410511     0.195418     0.329251

           1.3          2.3          3.3
     -0.410511     0.195418     0.329251

           1.4          2.4
      0.237469     0.735174

           1.5          2.5          3.5          4.5
    -11.239835    -0.767781     0.070094     0.211294

           1.6          2.6
      0.139594     0.305513

           1.7          2.7
      0.139594     0.305513

           1.8          2.8
      0.315516     0.956041


 HOMO      1.3    -0.410511 =     -11.1706eV
 LUMO      4.1     0.057509 =       1.5649eV
 LUMO-HOMO         0.468019 =      12.7355eV

 Orbitals saved in record  2100.2


 **********************************************************************************************************************************
 DATASETS  * FILE   NREC   LENGTH (MB)   RECORD NAMES
              1      18       28.86       500      610      700      900      950      970     1000      129      960     1100   
                                          VAR    BASINP    GEOM    SYMINP    ZMAT    AOBASIS   BASIS     P2S    ABASIS      S 
                                         1400     1410     1200     1210     1080     1600     1650     1700   
                                           T        V       H0       H01     AOSYM     SMH    MOLCAS    OPER   

              2       4        0.51       700     1000      520     2100   
                                         GEOM     BASIS   MCVARS     RHF  

 PROGRAMS   *        TOTAL    HF-SCF       INT
 CPU TIMES  *         2.13      0.13      1.88
 REAL TIME  *         3.52 SEC
 DISK USED  *        29.79 MB (local),      621.42 MB (total)
 GA USED    *         0.00 MB       (max)       0.00 MB       (current)
 **********************************************************************************************************************************


 PROGRAM * HESSIAN

 *** Long output written to logfile /gpfs01/work/emmanous/6Frequencies/implementation/MOLPRO/G4-T'/EXAMPLE_C2H2/c2h2.HF.def2QZVPPDprime.log ***


 PROGRAM * MCKINLEY (Hessian of the energy)     Author: A. Bernhardsson, R. Lindh

 Orbitals from record         2100.2

 Number of closed-shell orbitals:  7 (  3  1  1  0  2  0  0  0 )
 Number of occupied orbitals:      7 (  3  1  1  0  2  0  0  0 )

 Number of electrons= 14     Singlet     Space symmetry=1      Wavefunction type: CLOSED          


 McKinley needed     16.60 seconds of CPU time

 Entering CPHF calculation

 CPHF needed  89 iterations for 12 perturbations.  Total CPU time:    1.08 sec


 HF-SCF hessian saved to record  5300.2

 PROGRAM * FREQUENCIES (Calculation of harmonic vibrational spectra for HF-SCF)


 Permanent Dipole Moment [debye]
   1-  3    0.000000    0.000000    0.000000

 Dipole Moment Norm    0.0000000 [debye]

 Dipole Moment Derivatives [debye/ang]
              1             2             3             4             5             6             7             8
    1    0.00000000    0.00000000    0.00000000    0.00000000    0.00000000    0.00000000    0.00000000    0.00000000
    2    0.00000000    0.00000000    0.00000000    0.00000000    0.00000000    0.00000000    0.00000000    0.00000000
    3    0.00000000    0.00000000    0.00000000    0.00000000    0.00000000    0.00000000    0.00000000    0.00000000
              9            10            11            12
    1    0.00000000    0.00000000    0.00000000    0.00000000
    2    0.00000000    0.00000000    0.00000000    0.00000000
    3    0.00000000    0.00000000    0.00000000    0.00000000

 Force Constants (Second Derivatives of the Energy) in [a.u.]
                             HX1         HY1         HZ1         CX2         CY2     
           HX1           0.0227462
           HY1           0.0000000   0.0227462
           HZ1           0.0000000   0.0000000   0.4237123
           CX2          -0.0343398   0.0000000   0.0000000   0.0922274
           CY2           0.0000000  -0.0343398   0.0000000   0.0000000   0.0922274
           CZ2           0.0000000   0.0000000  -0.4295359   0.0000000   0.0000000
           CX3           0.0055815   0.0000000   0.0000000  -0.0634691   0.0000000
           CY3           0.0000000   0.0055815   0.0000000   0.0000000  -0.0634691
           CZ3           0.0000000   0.0000000   0.0057319   0.0000000   0.0000000
           HX4           0.0060121   0.0000000   0.0000000   0.0055815   0.0000000
           HY4           0.0000000   0.0060121   0.0000000   0.0000000   0.0055815
           HZ4           0.0000000   0.0000000   0.0000917   0.0000000   0.0000000
                             CZ2         CX3         CY3         CZ3         HX4     
           CZ2           1.5417029
           CX3           0.0000000   0.0922274
           CY3           0.0000000   0.0000000   0.0922274
           CZ3          -1.1178989   0.0000000   0.0000000   1.5417029
           HX4           0.0000000  -0.0343398   0.0000000   0.0000000   0.0227462
           HY4           0.0000000   0.0000000  -0.0343398   0.0000000   0.0000000
           HZ4           0.0057319   0.0000000   0.0000000  -0.4295359   0.0000000
                             HY4         HZ4     
           HY4           0.0227462
           HZ4           0.0000000   0.4237123


 Atomic Masses
   1-  4    1.007825   12.000000   12.000000    1.007825

 Mass weighted Second Derivative Matrix
                             HX1         HY1         HZ1         CX2         CY2     
           HX1           0.0225696
           HY1           0.0000000   0.0225696
           HZ1           0.0000000   0.0000000   0.4204225
           CX2          -0.0098745   0.0000000   0.0000000   0.0076856
           CY2           0.0000000  -0.0098745   0.0000000   0.0000000   0.0076856
           CZ2           0.0000000   0.0000000  -0.1235140   0.0000000   0.0000000
           CX3           0.0016050   0.0000000   0.0000000  -0.0052891   0.0000000
           CY3           0.0000000   0.0016050   0.0000000   0.0000000  -0.0052891
           CZ3           0.0000000   0.0000000   0.0016482   0.0000000   0.0000000
           HX4           0.0059654   0.0000000   0.0000000   0.0016050   0.0000000
           HY4           0.0000000   0.0059654   0.0000000   0.0000000   0.0016050
           HZ4           0.0000000   0.0000000   0.0000910   0.0000000   0.0000000
                             CZ2         CX3         CY3         CZ3         HX4     
           CZ2           0.1284752
           CX3           0.0000000   0.0076856
           CY3           0.0000000   0.0000000   0.0076856
           CZ3          -0.0931582   0.0000000   0.0000000   0.1284752
           HX4           0.0000000  -0.0098745   0.0000000   0.0000000   0.0225696
           HY4           0.0000000   0.0000000  -0.0098745   0.0000000   0.0000000
           HZ4           0.0016482   0.0000000   0.0000000  -0.1235140   0.0000000
                             HY4         HZ4     
           HY4           0.0225696
           HZ4           0.0000000   0.4204225


 Mass Weighted 2nd Derivative Matrix Eigenvalues
   1- 10    0.000000    0.000000    0.000000    0.003167    0.003167    0.026411    0.026411    0.030932    0.030932    0.161183
  11- 12    0.455830    0.480782

 Mass Weighted 2nd Derivative Matrix Eigenvectors
              1             2             3             4             5             6             7             8
    1    0.19682272    0.00000040    0.00000000    0.45930821    0.00000000    0.00000000    0.53762065    0.67916185
    2   -0.00000040    0.19682272    0.00000001    0.00000000    0.45930818    0.53762068    0.00000000    0.00000001
    3    0.00000000   -0.00000001    0.19682272    0.00000000    0.00000000    0.00000000    0.00000000    0.00000000
    4    0.67916185    0.00000139    0.00000002    0.53762065    0.00000000    0.00000000   -0.45930821   -0.19682272
    5   -0.00000139    0.67916185    0.00000004    0.00000000    0.53762068   -0.45930818    0.00000000    0.00000000
    6   -0.00000002   -0.00000004    0.67916185    0.00000000    0.00000000    0.00000000    0.00000000    0.00000000
    7    0.67916185    0.00000139    0.00000002   -0.53762065    0.00000000    0.00000000    0.45930821   -0.19682272
    8   -0.00000139    0.67916185    0.00000004    0.00000000   -0.53762068    0.45930818    0.00000000    0.00000000
    9   -0.00000002   -0.00000004    0.67916185    0.00000000    0.00000000    0.00000000    0.00000000    0.00000000
   10    0.19682272    0.00000040    0.00000000   -0.45930821    0.00000000    0.00000000   -0.53762065    0.67916185
   11   -0.00000040    0.19682272    0.00000001    0.00000000   -0.45930818   -0.53762068    0.00000000    0.00000001
   12    0.00000000   -0.00000001    0.19682272    0.00000000    0.00000000    0.00000000    0.00000000    0.00000000
              9            10            11            12
    1   -0.00000001    0.00000000    0.00000000    0.00000000
    2    0.67916185    0.00000000    0.00000000    0.00000000
    3    0.00000000    0.30752597    0.67916185    0.63673211
    4    0.00000000    0.00000000    0.00000000    0.00000000
    5   -0.19682272    0.00000000    0.00000000    0.00000000
    6    0.00000000    0.63673211   -0.19682272   -0.30752597
    7    0.00000000    0.00000000    0.00000000    0.00000000
    8   -0.19682272    0.00000000    0.00000000    0.00000000
    9    0.00000000   -0.63673211   -0.19682272    0.30752597
   10   -0.00000001    0.00000000    0.00000000    0.00000000
   11    0.67916185    0.00000000    0.00000000    0.00000000
   12    0.00000000   -0.30752597    0.67916185   -0.63673211

 Imaginary Vibration  Wavenumber
        Nr             [1/cm] 
        1                0.00

   Low Vibration      Wavenumber
        Nr             [1/cm] 
        1                0.00
        2                0.05

     Vibration        Wavenumber
        Nr             [1/cm] 
        1              289.30
        2              289.30
        3              835.41
        4              835.41
        5              904.08
        6              904.08
        7             2063.78
        8             3470.61
        9             3564.33

 FREQUENCIES * CALCULATION OF NORMAL MODES FOR HF-SCF


 Atomic Coordinates

  Nr  Atom  Charge       X              Y              Z

   1   H     1.00    0.000000000    0.000000000    3.147977915
   2   C     6.00    0.000000000    0.000000000    1.139032914
   3   C     6.00    0.000000000    0.000000000   -1.139032914
   4   H     1.00    0.000000000    0.000000000   -3.147977915

 Normal Modes

                              1 B2g       2 B3g       3 B3g       4 B2g       5 B3u
 Wavenumbers [cm-1]          289.30      289.30      835.41      835.41      904.08
 Intensities [km/mol]          0.00        0.00        0.00        0.00        0.00
 Intensities [relative]        0.00        0.00        0.00        0.00        0.00
           HX1              0.45752    -0.00000    -0.00000     0.53553     0.67652
           HY1              0.00000     0.45752     0.53553     0.00000     0.00000
           HZ1             -0.00000     0.00000    -0.00000     0.00000    -0.00000
           CX2              0.15520    -0.00000     0.00000    -0.13259    -0.05682
           CY2              0.00000     0.15520    -0.13259    -0.00000    -0.00000
           CZ2              0.00000    -0.00000    -0.00000    -0.00000     0.00000
           CX3             -0.15520     0.00000    -0.00000     0.13259    -0.05682
           CY3             -0.00000    -0.15520     0.13259     0.00000    -0.00000
           CZ3              0.00000    -0.00000    -0.00000    -0.00000     0.00000
           HX4             -0.45752     0.00000     0.00000    -0.53553     0.67652
           HY4             -0.00000    -0.45752    -0.53553    -0.00000     0.00000
           HZ4              0.00000    -0.00000     0.00000    -0.00000     0.00000

                              6 B2u       7 Ag        8 Err       9 Err
 Wavenumbers [cm-1]          904.08     2063.78     3470.61     3564.33
 Intensities [km/mol]          0.00        0.00        0.00        0.00
 Intensities [relative]        0.00        0.00        0.00        0.00
           HX1             -0.00000    -0.00000     0.00000     0.00000
           HY1              0.67652     0.00000    -0.00000     0.00000
           HZ1             -0.00000     0.30633     0.67652     0.63426
           CX2              0.00000     0.00000     0.00000     0.00000
           CY2             -0.05682    -0.00000    -0.00000    -0.00000
           CZ2             -0.00000     0.18381    -0.05682    -0.08878
           CX3              0.00000     0.00000     0.00000     0.00000
           CY3             -0.05682     0.00000     0.00000     0.00000
           CZ3             -0.00000    -0.18381    -0.05682     0.08878
           HX4             -0.00000     0.00000     0.00000     0.00000
           HY4              0.67652     0.00000     0.00000     0.00000
           HZ4             -0.00000    -0.30633     0.67652    -0.63426


 Normal Modes of imaginary frequencies

                                  1
 Wavenumbers [cm-1]            0.00
 Intensities [km/mol]          0.00
 Intensities [relative]        0.00
           HX1              0.19606
           HY1             -0.00000
           HZ1             -0.00000
           CX2              0.19606
           CY2             -0.00000
           CZ2             -0.00000
           CX3              0.19606
           CY3             -0.00000
           CZ3             -0.00000
           HX4              0.19606
           HY4             -0.00000
           HZ4             -0.00000


 Normal Modes of low/zero frequencies

                                  1           2
 Wavenumbers [cm-1]            0.00        0.05
 Intensities [km/mol]          0.00        0.00
 Intensities [relative]        0.00        0.00
           HX1              0.00000     0.00000
           HY1              0.19606     0.00000
           HZ1             -0.00000     0.19606
           CX2              0.00000     0.00000
           CY2              0.19606     0.00000
           CZ2             -0.00000     0.19606
           CX3              0.00000     0.00000
           CY3              0.19606     0.00000
           CZ3             -0.00000     0.19606
           HX4              0.00000     0.00000
           HY4              0.19606     0.00000
           HZ4             -0.00000     0.19606


 Frequencies dumped to record   5400.2

 Zero point energy:  0.02997228 [H]     6578.16 [1/CM]       78.69 [KJ/MOL]
 Frequency information read from record  5400.2


 **********************************************************************************************************************************
 DATASETS  * FILE   NREC   LENGTH (MB)   RECORD NAMES
              1      18       28.86       500      610      700      900      950      970     1000      129      960     1100   
                                          VAR    BASINP    GEOM    SYMINP    ZMAT    AOBASIS   BASIS     P2S    ABASIS      S 
                                         1400     1410     1200     1210     1080     1600     1650     1700   
                                           T        V       H0       H01     AOSYM     SMH    MOLCAS    OPER   

              2       7        0.58       700     1000      520     2100     5300     5450     5400   
                                         GEOM     BASIS   MCVARS     RHF     HESS     NMOD     FREQ   

              4       5        0.52      4100     4000     4200     4300     4400   

 PROGRAMS   *        TOTAL      FREQ    HF-SCF       INT
 CPU TIMES  *        19.82     17.69      0.13      1.88
 REAL TIME  *        21.77 SEC
 DISK USED  *        29.79 MB (local),      621.42 MB (total)
 SF USED    *         0.52 MB
 GA USED    *         0.00 MB       (max)       0.00 MB       (current)
 **********************************************************************************************************************************

 HF/DEF2-QZVPPD,H=DEF2-QZVPP energy=    -76.854962732582

          HF-SCF
    -76.85496273
 **********************************************************************************************************************************
 Molpro calculation terminated
