
 Working directory              : /scratch/emmanous/c2h2.MP2.def2TZVPPDprime.com.14766/molpro.BRvHwgHCJY/
 Global scratch directory       : /scratch/emmanous/c2h2.MP2.def2TZVPPDprime.com.14766/molpro.BRvHwgHCJY/
 Wavefunction directory         : /home/emmanous/wfu/
 Main file repository           : /scratch/emmanous/c2h2.MP2.def2TZVPPDprime.com.14766/molpro.BRvHwgHCJY/

 id        : wis

 Nodes     nprocs
 cff147       8
 GA implementation: MPI file
 GA implementation (serial work in mppx): MPI file

 Using DEFAULT tuning parameter for ncache   :   16384
 Using DEFAULT tuning parameter for mflopdgm :   10000
 Using DEFAULT tuning parameter for mflopdgv :    4000
 Using DEFAULT tuning parameter for mflopmxm :    5000
 Using DEFAULT tuning parameter for mflopmxv :    4000
 Using DEFAULT tuning parameter for mindgm   :       1
 Using DEFAULT tuning parameter for mindgc   :       4
 Using DEFAULT tuning parameter for mindgf   :    5000
 Using DEFAULT tuning parameter for mindgl   :       4
 Using DEFAULT tuning parameter for mindgr   :       1
 Using DEFAULT tuning parameter for mindgv   :      20
 Using DEFAULT tuning parameter for mincuda  :     500
 Using DEFAULT tuning parameter for mxmblk   :      64
 Using DEFAULT tuning parameter for mxmbln   :      64
 Using DEFAULT tuning parameter for nroll    :       2
 Using custom tuning parameter for ngpus     :       0
 Using customized tuning parameters: mindgm=1; mindgv=20; mindgc=4; mindgr=1; noblas=0; minvec=7

 Fortran compiler: integer size=8, double size=8, logical size=8
 default implementation of scratch files=sf  


 Variables initialized (1015), CPU time= 0.01 sec
 gthresh,energy=1d-12,gradient=1d-6,twoint=1d-18,prefac=1d-20
 noorient
 charge=0
 multiplicity=1
 geomtyp=xyz
 geom={
  H          0.0000000000        0.0000000000        1.6658381731
  C          0.0000000000        0.0000000000        0.6027502604
  C          0.0000000000        0.0000000000       -0.6027502604
  H          0.0000000000        0.0000000000       -1.6658381731
 }
 MASS,ISO
 MASS,PRINT
 
 basis,def2-TZVPPD,h=def2-TZVPP
 hf
 mp2
 {freq,analytic,print=3;noproject}
 
 Commands initialized (834), CPU time= 0.01 sec, 672 directives.
 Default parameters read. Elapsed time= 0.07 sec

 Using DEFAULT tuning parameter for mpplat   :       3
 Using DEFAULT tuning parameter for mppspeed :    1600
 Checking input...
 Passed
1


                                         ***  PROGRAM SYSTEM MOLPRO  ***
                                       Copyright, TTI GmbH Stuttgart, 2015
                                    Version 2022.2 linked Thu May  5 23:39:45 2022


 **********************************************************************************************************************************
 LABEL *                                                                                 
  64 bit mpp version                                                                     DATE: 12-Aug-23          TIME: 11:29:02  
 **********************************************************************************************************************************

 SHA1:             518bf5c5e315925380b88506c70af759aa1d1d96
 **********************************************************************************************************************************

 Memory per process:      1500 MW
 Total memory per node:  12000 MW

 GA preallocation disabled
 GA check disabled

 Variable memory set to 1500.0 MW


 THRESHOLDS:

 ZERO    =  1.00D-12  ONEINT  =  1.00D-12  TWOINT  =  1.00D-18  PREFAC  =  1.00D-20  XXXXXX  =  1.00D-09  EORDER  =  1.00D-04
 ENERGY  =  1.00D-12  ETEST   =  0.00D+00  EDENS   =  0.00D+00  THRDEDEF=  1.00D-06  GRADIENT=  1.00D-06  STEP    =  1.00D-03
 ORBITAL =  1.00D-05  CIVEC   =  1.00D-05  COEFF   =  1.00D-04  PRINTCI =  5.00D-02  PUNCHCI =  9.90D+01  OPTGRAD =  3.00D-04
 OPTENERG=  1.00D-06  OPTSTEP =  3.00D-04  THRGRAD =  1.00D-10  COMPRESS=  1.00D-11  VARMIN  =  1.00D-07  VARMAX  =  1.00D-03
 THRDOUB =  0.00D+00  THRDIV  =  1.00D-05  THRRED  =  1.00D-07  THRPSP  =  1.00D+00  THRDC   =  1.00D-10  THRCS   =  1.00D-10
 THRNRM  =  1.00D-08  THREQ   =  0.00D+00  THRDE   =  1.00D+00  THRREF  =  1.00D-05  SPARFAC =  1.00D+00  THRDLP  =  1.00D-07
 THRDIA  =  1.00D-10  THRDLS  =  1.00D-07  THRGPS  =  0.00D+00  THRKEX  =  0.00D+00  THRDIS  =  2.00D-01  THRVAR  =  1.00D-10
 THRLOC  =  1.00D-06  THRGAP  =  1.00D-06  THRLOCT = -1.00D+00  THRGAPT = -1.00D+00  THRORB  =  1.00D-06  THRMLTP =  0.00D+00
 THRCPQCI=  1.00D-10  KEXTA   =  0.00D+00  THRCOARS=  0.00D+00  SYMTOL  =  1.00D-06  GRADTOL =  1.00D-06  THROVL  =  1.00D-08
 THRORTH =  1.00D-08  THRDLOVL= -1.00D+00  GRID    =  1.00D-06  GRIDMAX =  1.00D-03  DTMAX   =  0.00D+00  THROCCDE=  1.00D-01
 THROCCDE=  1.00D-01  THRPRINT=  2.50D-01

 SETTING CHARGE         =      0.0000000D+00                                  
 SETTING MULTIPLICITY   =         1.00000000                                  
 SETTING GEOMTYP        =    XYZ


 Using masses of most abundant isotopes

 **********************************************************************************************************************************


 Atomic masses

 Center       Mass
 H          1.00782
 C         12.00000
 C         12.00000
 H          1.00782
 SETTING BASIS          =    DEF2-TZVPPD,H=DEF2-TZVPP


 Recomputing integrals since basis changed


 Using spherical harmonics

 Library entry H      S def2-TZVPP           selected for orbital group  1
 Library entry H      P def2-TZVPP           selected for orbital group  1
 Library entry H      D def2-TZVPP           selected for orbital group  1
 Library entry C      S def2-TZVPPD          selected for orbital group  2
 Library entry C      P def2-TZVPPD          selected for orbital group  2
 Library entry C      D def2-TZVPPD          selected for orbital group  2
 Library entry C      F def2-TZVPPD          selected for orbital group  2


 PROGRAM * SEWARD (Integral evaluation for generally contracted gaussian basis sets)     Author: Roland Lindh, 1990

 Geometry written to block  1 of record 700


 Point group  D2h 



 ATOMIC COORDINATES

 NR  ATOM    CHARGE       X              Y              Z

   1  H       1.00    0.000000000    0.000000000    3.147977915
   2  H       1.00    0.000000000    0.000000000   -3.147977915
   3  C       6.00    0.000000000    0.000000000    1.139032914
   4  C       6.00    0.000000000    0.000000000   -1.139032914

 Bond lengths in Bohr (Angstrom)

 1-3  2.008945001  2-4  2.008945001  3-4  2.278065827
     ( 1.063087913)     ( 1.063087913)     ( 1.205500521)

 Bond angles

  1-3-4  179.99999774   2-4-3  179.99999774

 NUCLEAR CHARGE:                   14
 NUMBER OF PRIMITIVE AOS:         150
 NUMBER OF SYMMETRY AOS:          136
 NUMBER OF CONTRACTIONS:          102   (   24Ag  +   11B3u +   11B2u +    5B1g +   24B1u +   11B2g +   11B3g +    5Au  )
 NUMBER OF INNER CORE ORBITALS:     0   (    0Ag  +    0B3u +    0B2u +    0B1g +    0B1u +    0B2g +    0B3g +    0Au  )
 NUMBER OF OUTER CORE ORBITALS:     2   (    1Ag  +    0B3u +    0B2u +    0B1g +    1B1u +    0B2g +    0B3g +    0Au  )
 NUMBER OF VALENCE ORBITALS:       10   (    3Ag  +    1B3u +    1B2u +    0B1g +    3B1u +    1B2g +    1B3g +    0Au  )


 NUCLEAR REPULSION ENERGY   24.73414938

 EXTRA SYMMETRY OF AOS IN SYMMETRY 1:   1 1 1 1 1 1 2 1 1 1   1 1 1 1 1 1 1 2 1 2   1 2 1 2
 EXTRA SYMMETRY OF AOS IN SYMMETRY 2:   1 1 1 1 1 1 1 1 1 1   2
 EXTRA SYMMETRY OF AOS IN SYMMETRY 3:   1 1 1 1 1 1 1 1 1 1   2
 EXTRA SYMMETRY OF AOS IN SYMMETRY 5:   1 1 1 1 1 1 2 1 1 1   1 1 1 1 1 1 1 2 1 2   1 2 1 2
 EXTRA SYMMETRY OF AOS IN SYMMETRY 6:   1 1 1 1 1 1 1 1 1 1   2
 EXTRA SYMMETRY OF AOS IN SYMMETRY 7:   1 1 1 1 1 1 1 1 1 1   2

 Eigenvalues of metric

         1 0.545E-03 0.792E-03 0.571E-02 0.726E-02 0.130E-01 0.874E-01 0.145E+00 0.187E+00
         2 0.555E-01 0.187E+00 0.214E+00 0.275E+00 0.570E+00 0.756E+00 0.114E+01 0.131E+01
         3 0.555E-01 0.187E+00 0.214E+00 0.275E+00 0.570E+00 0.756E+00 0.114E+01 0.131E+01
         4 0.377E+00 0.706E+00 0.119E+01 0.162E+01 0.280E+01
         5 0.120E-05 0.282E-04 0.344E-03 0.481E-03 0.735E-02 0.261E-01 0.103E+00 0.121E+00
         6 0.244E-02 0.799E-02 0.583E-01 0.231E+00 0.305E+00 0.418E+00 0.861E+00 0.927E+00
         7 0.244E-02 0.799E-02 0.583E-01 0.231E+00 0.305E+00 0.418E+00 0.861E+00 0.927E+00
         8 0.122E+00 0.320E+00 0.410E+00 0.898E+00 0.155E+01


 Contracted 2-electron integrals neglected if value below      1.0D-18
 AO integral compression algorithm  1   Integral accuracy      1.0D-18

     22.807 MB (compressed) written to integral file ( 93.7%)

     Node minimum: 2.097 MB, node maximum: 4.719 MB


 NUMBER OF SORTED TWO-ELECTRON INTEGRALS:     229451.     BUFFER LENGTH:  32768
 NUMBER OF SEGMENTS:   1  SEGMENT LENGTH:     229451      RECORD LENGTH: 524288

 Memory used in sort:       0.79 MW

 SORT1 READ     3118008. AND WROTE      200779. INTEGRALS IN      1 RECORDS. CPU TIME:     0.10 SEC, REAL TIME:     0.12 SEC
 SORT2 READ     1647620. AND WROTE     1873356. INTEGRALS IN     72 RECORDS. CPU TIME:     0.01 SEC, REAL TIME:     0.02 SEC

 Node minimum:      229085.  Node maximum:      240912. integrals

 OPERATOR DM      FOR CENTER  0  COORDINATES:    0.000000    0.000000    0.000000


 **********************************************************************************************************************************
 DATASETS  * FILE   NREC   LENGTH (MB)   RECORD NAMES
              1      18       28.69       500      610      700      900      950      970     1000      129      960     1100   
                                          VAR    BASINP    GEOM    SYMINP    ZMAT    AOBASIS   BASIS     P2S    ABASIS      S 
                                         1400     1410     1200     1210     1080     1600     1650     1700   
                                           T        V       H0       H01     AOSYM     SMH    MOLCAS    OPER   

 PROGRAMS   *        TOTAL       INT
 CPU TIMES  *         0.58      0.45
 REAL TIME  *         1.57 SEC
 DISK USED  *        29.02 MB (local),      278.30 MB (total)
 GA USED    *         0.00 MB       (max)       0.00 MB       (current)
 **********************************************************************************************************************************


 Program * Restricted Hartree-Fock

 Orbital guess generated from atomic densities.

 Initial occupancy:   3   1   1   0   2   0   0   0

 NELEC=   14   SYM=1   MS2= 0   THRE=1.0D-12   THRD=1.0D-06   THRG=1.0D-06  HFMA2=F  DIIS_START=2   DIIS_MAX=10   DIIS_INCORE=F

 Level shifts:    0.00 (CLOSED)    0.00 (OPEN)    0.30 (GAP_MIN)

 ITER           ETOT              DE          GRAD        DDIFF     DIIS  NEXP   TIME(IT)  TIME(TOT)  DIAG
   1      -76.83632739     -76.83632739     0.00D+00     0.82D-01     0     0       0.00      0.00    start
   2      -76.85024004      -0.01391265     0.10D-01     0.79D-01     1     0       0.01      0.01    diag
   3      -76.85155218      -0.00131214     0.32D-02     0.13D-01     2     0       0.00      0.01    diag
   4      -76.85167499      -0.00012282     0.66D-03     0.51D-02     3     0       0.00      0.01    diag
   5      -76.85168004      -0.00000505     0.13D-03     0.15D-03     4     0       0.00      0.01    diag
   6      -76.85168021      -0.00000017     0.23D-04     0.50D-04     5     0       0.00      0.01    diag
   7      -76.85168022      -0.00000000     0.30D-05     0.18D-04     6     0       0.00      0.01    diag
   8      -76.85168022      -0.00000000     0.41D-06     0.61D-05     7     0       0.00      0.01    fixocc
   9      -76.85168022      -0.00000000     0.30D-07     0.36D-06     8     0       0.00      0.01    diag
  10      -76.85168022       0.00000000     0.31D-08     0.69D-07     0     0       0.00      0.01    diag/orth

 Final occupancy:   3   1   1   0   2   0   0   0

 !RHF STATE 1.1 Energy                -76.851680216834
  RHF One-electron energy            -151.610206262676
  RHF Two-electron energy              50.024376661617
  RHF Kinetic energy                   76.677698883972
  RHF Nuclear energy                   24.734149384225
  RHF Virial quotient                  -1.002268995228

 !RHF STATE 1.1 Dipole moment           0.00000000     0.00000000     0.00000000
 Dipole moment /Debye                   0.00000000     0.00000000     0.00000000

 Orbital energies:

           1.1          2.1          3.1          4.1          5.1
    -11.243548    -1.028983    -0.680768     0.072309     0.192530

           1.2          2.2          3.2
     -0.410164     0.273935     0.425313

           1.3          2.3          3.3
     -0.410164     0.273935     0.425313

           1.4          2.4
      0.280718     0.949219

           1.5          2.5          3.5          4.5
    -11.239795    -0.767304     0.090427     0.244106

           1.6          2.6
      0.144460     0.319858

           1.7          2.7
      0.144460     0.319858

           1.8          2.8
      0.377295     1.232642


 HOMO      1.3    -0.410164 =     -11.1611eV
 LUMO      4.1     0.072309 =       1.9676eV
 LUMO-HOMO         0.482473 =      13.1288eV

 Orbitals saved in record  2100.2


 **********************************************************************************************************************************
 DATASETS  * FILE   NREC   LENGTH (MB)   RECORD NAMES
              1      18       28.69       500      610      700      900      950      970     1000      129      960     1100   
                                          VAR    BASINP    GEOM    SYMINP    ZMAT    AOBASIS   BASIS     P2S    ABASIS      S 
                                         1400     1410     1200     1210     1080     1600     1650     1700   
                                           T        V       H0       H01     AOSYM     SMH    MOLCAS    OPER   

              2       4        0.44       700     1000      520     2100   
                                         GEOM     BASIS   MCVARS     RHF  

 PROGRAMS   *        TOTAL    HF-SCF       INT
 CPU TIMES  *         0.65      0.07      0.45
 REAL TIME  *         1.86 SEC
 DISK USED  *        29.30 MB (local),      280.52 MB (total)
 GA USED    *         0.00 MB       (max)       0.00 MB       (current)
 **********************************************************************************************************************************


 PROGRAM * MP2 (Closed-shell)     Authors: C. Hampel, H.-J. Werner, 1991, M. Deegan, P.J. Knowles, 1992


 Convergence thresholds:  THRVAR = 1.00D-16  THRDEN = 1.00D-12

 Number of core orbitals:           2 (   1   0   0   0   1   0   0   0 )
 Number of closed-shell orbitals:   5 (   2   1   1   0   1   0   0   0 )
 Number of external orbitals:      95 (  21  10  10   5  22  11  11   5 )

 Molecular orbitals read from record     2100.2  Type=RHF/CANONICAL  

 Number of N-1 electron functions:               5
 Number of N-2 electron functions:              15
 Number of singly external CSFs:                84
 Number of doubly external CSFs:             15577
 Total number of CSFs:                       15662

 Length of J-op  integral file:               0.00 MB
 Length of K-op  integral file:               0.12 MB

 Integral transformation finished. Total CPU:   0.01 sec, npass=  1  Memory used:   0.09 MW

 Memory needed for MP2:                      0.01 MW

 SCS-MP2 correlation energy:           -0.309583346238   (PS=  1.200000  PT=  0.333333)
 SCS-MP2 total energy:                -77.161263563072


  Reference energy                    -76.851680216834
  MP2 singlet pair energy              -0.202295652923
  MP2 triplet pair energy              -0.107403047245
  MP2 correlation energy               -0.309698700168

 !MP2 total energy                    -77.161378917002

 KEXT needed  1 integral passes. Memory used:   0.10 MW  CPU time:      0.00 sec

 CPHF start vector      0.2 not found

 Starting Coupled-perturbed Hartree-Fock, convergence threshold= 1.0D-06

 ITER   MIC  DIIS      VAR         VARC       CPU
   1     0     1    0.34D-01    0.25D-02     0.00
   2     4     2    0.49D-03    0.11D-03     0.00
   3     3     3    0.14D-04    0.35D-05     0.00
   4     2     4    0.13D-05    0.17D-06     0.00
   5     1     5    0.47D-07    0.12D-07     0.00

 CPHF convergence reached in  5 macroiterations and   10 microiterations.   Accuracy: 4.6542D-08

 CPHF solution written to record  4100.2

 Dipole moments (unrelaxed):            0.00000000     0.00000000     0.00000000
 Orbital relaxation contribution:      -0.00000000    -0.00000000    -0.00000000
 !MP2 STATE 1.1 Dipole moment           0.00000000     0.00000000     0.00000000
 Dipole moment /Debye                   0.00000000     0.00000000     0.00000000

 CPU-time for density and lagrangian:                  0.01 sec
 CPU-time for coupled-perturbed hartree-fock:          0.00 sec

 MP2 gradient info saved on record         5200.1


 **********************************************************************************************************************************
 DATASETS  * FILE   NREC   LENGTH (MB)   RECORD NAMES
              1      20       29.16       500      610      700      900      950      970     1000      129      960     1100   
                                          VAR    BASINP    GEOM    SYMINP    ZMAT    AOBASIS   BASIS     P2S    ABASIS      S 
                                         1400     1410     1200     1210     1080     1600     1650     1700     1380     5200   
                                           T        V       H0       H01     AOSYM     SMH    MOLCAS    OPER     JKOP      MP2  

              2       5        0.55       700     1000      520     2100     4100   
                                         GEOM     BASIS   MCVARS     RHF     CPHF   

 PROGRAMS   *        TOTAL       MP2    HF-SCF       INT
 CPU TIMES  *         0.70      0.05      0.07      0.45
 REAL TIME  *         1.92 SEC
 DISK USED  *        29.77 MB (local),      284.29 MB (total)
 SF USED    *         1.05 MB
 GA USED    *         0.00 MB       (max)       0.00 MB       (current)
 **********************************************************************************************************************************


 PROGRAM * HESSIAN

 *** Long output written to logfile /gpfs01/work/emmanous/6Frequencies/implementation/MOLPRO/G4-T'/EXAMPLE_C2H2/c2h2.MP2.def2TZVPPDprime.log ***


 Computing numerical hessian using default procedure for command MP2

 Symmetry elements for unique displacements: X  Y  Z  

 Using AUTO symmetry option

 Running default procedure: HF-SCF000  MP2


 Numerically approximating hessian using central gradient differences

 Task list generated. Total number of displacements:      8

 All   8 tasks completed.  CPU=      4.00 sec, Elapsed=      4.50 sec.

 MP2 hessian saved to record  5300.2

 PROGRAM * FREQUENCIES (Calculation of harmonic vibrational spectra for MP2)


 Permanent Dipole Moment [debye]
   1-  3    0.000000    0.000000    0.000000

 Dipole Moment Norm    0.0000000 [debye]

 Dipole Moment Derivatives [debye/ang]
              1             2             3             4             5             6             7             8
    1    0.98855952    0.00000000    0.00000000   -0.98856154    0.00000000    0.00000000   -0.98856154    0.00000000
    2    0.00000000    0.98855804    0.00000000    0.00000000   -0.98856566    0.00000000    0.00000000   -0.98856566
    3    0.00000000    0.00000000    1.01270123    0.00000000    0.00000000   -1.01270588    0.00000000    0.00000000
              9            10            11            12
    1    0.00000000    0.98855952    0.00000000    0.00000000
    2    0.00000000    0.00000000    0.98855804    0.00000000
    3   -1.01270588    0.00000000    0.00000000    1.01270123

 Force Constants (Second Derivatives of the Energy) in [a.u.]
                             HX1         HY1         HZ1         CX2         CY2     
           HX1           0.0148230
           HY1           0.0000000   0.0148230
           HZ1           0.0000000   0.0000000   0.4156034
           CX2          -0.0223947   0.0000000   0.0000000   0.0376735
           CY2           0.0000000  -0.0223947   0.0000000   0.0000000   0.0376734
           CZ2           0.0000000   0.0000000  -0.4234966   0.0000000   0.0000000
           CX3           0.0017216   0.0000000   0.0000000  -0.0170012   0.0000000
           CY3           0.0000000   0.0017216   0.0000000   0.0000000  -0.0170012
           CZ3           0.0000000   0.0000000   0.0084700   0.0000000   0.0000000
           HX4           0.0058509   0.0000000   0.0000000   0.0017216   0.0000000
           HY4           0.0000000   0.0058509   0.0000000   0.0000000   0.0017216
           HZ4           0.0000000   0.0000000  -0.0005793   0.0000000   0.0000000
                             CZ2         CX3         CY3         CZ3         HX4     
           CZ2           1.4773002
           CX3           0.0000000   0.0376735
           CY3           0.0000000   0.0000000   0.0376734
           CZ3          -1.0622712  -0.0000000  -0.0000000   1.4773002
           HX4           0.0000000  -0.0223947   0.0000000  -0.0000000   0.0148230
           HY4           0.0000000   0.0000000  -0.0223947  -0.0000000   0.0000000
           HZ4           0.0084700  -0.0000000  -0.0000000  -0.4234966  -0.0000000
                             HY4         HZ4     
           HY4           0.0148230
           HZ4          -0.0000000   0.4156034


 Atomic Masses
   1-  4    1.007825   12.000000   12.000000    1.007825

 Mass weighted Second Derivative Matrix
                             HX1         HY1         HZ1         CX2         CY2     
           HX1           0.0147079
           HY1           0.0000000   0.0147079
           HZ1           0.0000000   0.0000000   0.4123766
           CX2          -0.0064396   0.0000000   0.0000000   0.0031395
           CY2           0.0000000  -0.0064396   0.0000000   0.0000000   0.0031395
           CZ2           0.0000000   0.0000000  -0.1217774   0.0000000   0.0000000
           CX3           0.0004950   0.0000000   0.0000000  -0.0014168   0.0000000
           CY3           0.0000000   0.0004950   0.0000000   0.0000000  -0.0014168
           CZ3           0.0000000   0.0000000   0.0024356   0.0000000   0.0000000
           HX4           0.0058055   0.0000000   0.0000000   0.0004950   0.0000000
           HY4           0.0000000   0.0058055   0.0000000   0.0000000   0.0004950
           HZ4           0.0000000   0.0000000  -0.0005748   0.0000000   0.0000000
                             CZ2         CX3         CY3         CZ3         HX4     
           CZ2           0.1231083
           CX3           0.0000000   0.0031395
           CY3           0.0000000   0.0000000   0.0031395
           CZ3          -0.0885226  -0.0000000  -0.0000000   0.1231083
           HX4           0.0000000  -0.0064396   0.0000000  -0.0000000   0.0147079
           HY4           0.0000000   0.0000000  -0.0064396  -0.0000000   0.0000000
           HZ4           0.0024356  -0.0000000  -0.0000000  -0.1217774  -0.0000000
                             HY4         HZ4     
           HY4           0.0147079
           HZ4          -0.0000000   0.4123766


 Mass Weighted 2nd Derivative Matrix Eigenvalues
   1- 10   -0.000538   -0.000538    0.000000    0.000000    0.000000    0.013997    0.013997    0.022236    0.022236    0.152412
  11- 12    0.446388    0.472170

 Mass Weighted 2nd Derivative Matrix Eigenvectors
              1             2             3             4             5             6             7             8
    1    0.00000000    0.41862087    0.00000119    0.19681571   -0.00000045    0.56987417    0.00000000    0.67916388
    2    0.41862016    0.00000000    0.19681522   -0.00000119    0.00000108    0.00000000    0.56987469    0.00000000
    3    0.00000000    0.00000000   -0.00000108    0.00000045    0.19682378    0.00000000    0.00000000    0.00000000
    4    0.00000000    0.56987417    0.00000411    0.67916388   -0.00000156   -0.41862087    0.00000000   -0.19681571
    5    0.56987469    0.00000000    0.67916402   -0.00000411    0.00000373    0.00000000   -0.41862016    0.00000000
    6    0.00000000    0.00000000   -0.00000373    0.00000156    0.67916154    0.00000000    0.00000000    0.00000000
    7    0.00000000   -0.56987417    0.00000411    0.67916388   -0.00000156    0.41862087    0.00000000   -0.19681571
    8   -0.56987469    0.00000000    0.67916402   -0.00000411    0.00000373    0.00000000    0.41862016    0.00000000
    9    0.00000000    0.00000000   -0.00000373    0.00000156    0.67916154    0.00000000    0.00000000    0.00000000
   10    0.00000000   -0.41862087    0.00000119    0.19681571   -0.00000045   -0.56987417    0.00000000    0.67916388
   11   -0.41862016    0.00000000    0.19681522   -0.00000119    0.00000108    0.00000000   -0.56987469    0.00000000
   12    0.00000000    0.00000000   -0.00000108    0.00000045    0.19682378    0.00000000    0.00000000    0.00000000
              9            10            11            12
    1    0.00000000    0.00000000    0.00000000    0.00000000
    2    0.67916402    0.00000000    0.00000000    0.00000000
    3    0.00000000    0.30430174    0.67916154    0.63827929
    4    0.00000000    0.00000000    0.00000000    0.00000000
    5   -0.19681522    0.00000000    0.00000000    0.00000000
    6    0.00000000    0.63827929   -0.19682378   -0.30430174
    7    0.00000000    0.00000000    0.00000000    0.00000000
    8   -0.19681522    0.00000000    0.00000000    0.00000000
    9    0.00000000   -0.63827929   -0.19682378    0.30430174
   10    0.00000000    0.00000000    0.00000000    0.00000000
   11    0.67916402    0.00000000    0.00000000    0.00000000
   12    0.00000000   -0.30430174    0.67916154   -0.63827929

 Imaginary Vibration  Wavenumber
        Nr             [1/cm] 
        1              119.22
        2              119.22
        3                0.01
        4                0.01
        5                0.01

     Vibration        Wavenumber
        Nr             [1/cm] 
        1              608.15
        2              608.16
        3              766.54
        4              766.54
        5             2006.85
        6             3434.47
        7             3532.27

 FREQUENCIES * CALCULATION OF NORMAL MODES FOR MP2


 Atomic Coordinates

  Nr  Atom  Charge       X              Y              Z

   1   H     1.00    0.000000000    0.000000000    3.147977915
   2   C     6.00    0.000000000    0.000000000    1.139032914
   3   C     6.00    0.000000000    0.000000000   -1.139032914
   4   H     1.00    0.000000000    0.000000000   -3.147977915

 Normal Modes

                              1 B2g       2 B3g       3 B3u       4 B2u       5 Ag 
 Wavenumbers [cm-1]          608.15      608.16      766.54      766.54     2006.85
 Intensities [km/mol]          0.00        0.00       88.83       88.83        0.00
 Intensities [relative]        0.00        0.00       95.29       95.29        0.00
           HX1              0.56766     0.00000     0.67652    -0.00000    -0.00000
           HY1             -0.00000     0.56766     0.00000     0.67652     0.00000
           HZ1              0.00000    -0.00000     0.00000    -0.00000     0.30312
           CX2             -0.12085    -0.00000    -0.05682     0.00000    -0.00000
           CY2              0.00000    -0.12085    -0.00000    -0.05682     0.00000
           CZ2             -0.00000    -0.00000     0.00000    -0.00000     0.18426
           CX3              0.12085     0.00000    -0.05682     0.00000     0.00000
           CY3             -0.00000     0.12085    -0.00000    -0.05682    -0.00000
           CZ3              0.00000     0.00000     0.00000     0.00000    -0.18426
           HX4             -0.56766    -0.00000     0.67652    -0.00000    -0.00000
           HY4              0.00000    -0.56766     0.00000     0.67652     0.00000
           HZ4              0.00000     0.00000     0.00000    -0.00000    -0.30312

                              6 B1u       7 Ag 
 Wavenumbers [cm-1]         3434.47     3532.27
 Intensities [km/mol]         93.22        0.00
 Intensities [relative]      100.00        0.00
           HX1             -0.00000    -0.00000
           HY1             -0.00000     0.00000
           HZ1              0.67652     0.63580
           CX2              0.00000     0.00000
           CY2              0.00000     0.00000
           CZ2             -0.05682    -0.08784
           CX3             -0.00000    -0.00000
           CY3              0.00000    -0.00000
           CZ3             -0.05682     0.08784
           HX4              0.00000     0.00000
           HY4             -0.00000     0.00000
           HZ4              0.67652    -0.63580


 Normal Modes of imaginary frequencies

                                  1           2           3           4           5
 Wavenumbers [cm-1]          119.22      119.22        0.01        0.01        0.01
 Intensities [km/mol]          0.00        0.00        0.00        0.00        0.00
 Intensities [relative]        0.00        0.00        0.00        0.00        0.00
           HX1             -0.00000     0.41699     0.00000     0.19605    -0.00000
           HY1              0.41699     0.00000     0.19605    -0.00000     0.00000
           HZ1             -0.00000    -0.00000    -0.00000     0.00000     0.19606
           CX2             -0.00000     0.16451     0.00000     0.19606    -0.00000
           CY2              0.16451     0.00000     0.19606    -0.00000     0.00000
           CZ2             -0.00000    -0.00000    -0.00000     0.00000     0.19606
           CX3              0.00000    -0.16451     0.00000     0.19606    -0.00000
           CY3             -0.16451    -0.00000     0.19606    -0.00000     0.00000
           CZ3             -0.00000    -0.00000    -0.00000     0.00000     0.19606
           HX4              0.00000    -0.41699     0.00000     0.19605    -0.00000
           HY4             -0.41699    -0.00000     0.19605    -0.00000     0.00000
           HZ4             -0.00000    -0.00000    -0.00000     0.00000     0.19606


 Normal Modes of low/zero frequencies


 Wavenumbers [cm-1]
 Intensities [km/mol]
 Intensities [relative]
           HX1     
           HY1     
           HZ1     
           CX2     
           CY2     
           CZ2     
           CX3     
           CY3     
           CZ3     
           HX4     
           HY4     
           HZ4     


 Frequencies dumped to record   5400.2

 Zero point energy:  0.02670690 [H]     5861.49 [1/CM]       70.12 [KJ/MOL]
 Frequency information read from record  5400.2

 Recomputing wavefunction at initial geometry


 **********************************************************************************************************************************
 DATASETS  * FILE   NREC   LENGTH (MB)   RECORD NAMES
              1      20       29.16       500      610      700      900      950      970     1000      129      960     1100   
                                          VAR    BASINP    GEOM    SYMINP    ZMAT    AOBASIS   BASIS     P2S    ABASIS      S 
                                         1400     1410     1200     1210     1080     1600     1650     1700     1380     5200   
                                           T        V       H0       H01     AOSYM     SMH    MOLCAS    OPER     JKOP      MP2  

              2       8        0.62       700     1000      520     2100     4100     5300     5450     5400   
                                         GEOM     BASIS   MCVARS     RHF     CPHF     HESS     NMOD     FREQ   

 PROGRAMS   *        TOTAL      FREQ       MP2    HF-SCF       INT
 CPU TIMES  *         5.83      5.12      0.05      0.07      0.45
 REAL TIME  *         8.38 SEC
 DISK USED  *       131.31 MB (local),        1.00 GB (total)
 SF USED    *         1.06 MB
 GA USED    *         0.00 MB       (max)       0.00 MB       (current)
 **********************************************************************************************************************************

 MP2/DEF2-TZVPPD,H=DEF2-TZVPP energy=    -77.161378914766

             MP2          HF-SCF
    -77.16137892    -76.85168022
 **********************************************************************************************************************************
 Molpro calculation terminated
