
 Working directory              : /scratch/emmanous/h2.MP2.def2TZVP.com.4776/molpro.r0DCgJrdvG/
 Global scratch directory       : /scratch/emmanous/h2.MP2.def2TZVP.com.4776/molpro.r0DCgJrdvG/
 Wavefunction directory         : /home/emmanous/wfu/
 Main file repository           : /scratch/emmanous/h2.MP2.def2TZVP.com.4776/molpro.r0DCgJrdvG/

 id        : wis

 Nodes     nprocs
 cff155       8
 GA implementation: MPI file
 GA implementation (serial work in mppx): MPI file

 Using DEFAULT tuning parameter for ncache   :   16384
 Using DEFAULT tuning parameter for mflopdgm :   10000
 Using DEFAULT tuning parameter for mflopdgv :    4000
 Using DEFAULT tuning parameter for mflopmxm :    5000
 Using DEFAULT tuning parameter for mflopmxv :    4000
 Using DEFAULT tuning parameter for mindgm   :       1
 Using DEFAULT tuning parameter for mindgc   :       4
 Using DEFAULT tuning parameter for mindgf   :    5000
 Using DEFAULT tuning parameter for mindgl   :       4
 Using DEFAULT tuning parameter for mindgr   :       1
 Using DEFAULT tuning parameter for mindgv   :      20
 Using DEFAULT tuning parameter for mincuda  :     500
 Using DEFAULT tuning parameter for mxmblk   :      64
 Using DEFAULT tuning parameter for mxmbln   :      64
 Using DEFAULT tuning parameter for nroll    :       2
 Using custom tuning parameter for ngpus     :       0
 Using customized tuning parameters: mindgm=1; mindgv=20; mindgc=4; mindgr=1; noblas=0; minvec=7

 Fortran compiler: integer size=8, double size=8, logical size=8
 default implementation of scratch files=sf  


 Variables initialized (1015), CPU time= 0.01 sec
 gthresh,energy=1d-12,gradient=1d-6,twoint=1d-18,prefac=1d-20
 noorient
 charge=0
 multiplicity=1
 geomtyp=xyz
 geom={
  H          0.0000000000        0.0000000000        0.7204855536
  H          0.0000000000        0.0000000000       -0.0204855536
 }
 MASS,ISO
 MASS,PRINT
 
 basis,def2-TZVP
 hf
 mp2
 {freq,analytical,print=3;noproject}
 Commands initialized (834), CPU time= 0.01 sec, 672 directives.
 Default parameters read. Elapsed time= 0.07 sec

 Using DEFAULT tuning parameter for mpplat   :       3
 Using DEFAULT tuning parameter for mppspeed :    1600
 Checking input...
 Passed
1


                                         ***  PROGRAM SYSTEM MOLPRO  ***
                                       Copyright, TTI GmbH Stuttgart, 2015
                                    Version 2022.2 linked Thu May  5 23:39:45 2022


 **********************************************************************************************************************************
 LABEL *                                                                                 
  64 bit mpp version                                                                     DATE: 12-Aug-23          TIME: 11:17:02  
 **********************************************************************************************************************************

 SHA1:             518bf5c5e315925380b88506c70af759aa1d1d96
 **********************************************************************************************************************************

 Memory per process:      1500 MW
 Total memory per node:  12000 MW

 GA preallocation disabled
 GA check disabled

 Variable memory set to 1500.0 MW


 THRESHOLDS:

 ZERO    =  1.00D-12  ONEINT  =  1.00D-12  TWOINT  =  1.00D-18  PREFAC  =  1.00D-20  XXXXXX  =  1.00D-09  EORDER  =  1.00D-04
 ENERGY  =  1.00D-12  ETEST   =  0.00D+00  EDENS   =  0.00D+00  THRDEDEF=  1.00D-06  GRADIENT=  1.00D-06  STEP    =  1.00D-03
 ORBITAL =  1.00D-05  CIVEC   =  1.00D-05  COEFF   =  1.00D-04  PRINTCI =  5.00D-02  PUNCHCI =  9.90D+01  OPTGRAD =  3.00D-04
 OPTENERG=  1.00D-06  OPTSTEP =  3.00D-04  THRGRAD =  1.00D-10  COMPRESS=  1.00D-11  VARMIN  =  1.00D-07  VARMAX  =  1.00D-03
 THRDOUB =  0.00D+00  THRDIV  =  1.00D-05  THRRED  =  1.00D-07  THRPSP  =  1.00D+00  THRDC   =  1.00D-10  THRCS   =  1.00D-10
 THRNRM  =  1.00D-08  THREQ   =  0.00D+00  THRDE   =  1.00D+00  THRREF  =  1.00D-05  SPARFAC =  1.00D+00  THRDLP  =  1.00D-07
 THRDIA  =  1.00D-10  THRDLS  =  1.00D-07  THRGPS  =  0.00D+00  THRKEX  =  0.00D+00  THRDIS  =  2.00D-01  THRVAR  =  1.00D-10
 THRLOC  =  1.00D-06  THRGAP  =  1.00D-06  THRLOCT = -1.00D+00  THRGAPT = -1.00D+00  THRORB  =  1.00D-06  THRMLTP =  0.00D+00
 THRCPQCI=  1.00D-10  KEXTA   =  0.00D+00  THRCOARS=  0.00D+00  SYMTOL  =  1.00D-06  GRADTOL =  1.00D-06  THROVL  =  1.00D-08
 THRORTH =  1.00D-08  THRDLOVL= -1.00D+00  GRID    =  1.00D-06  GRIDMAX =  1.00D-03  DTMAX   =  0.00D+00  THROCCDE=  1.00D-01
 THROCCDE=  1.00D-01  THRPRINT=  2.50D-01

 SETTING CHARGE         =      0.0000000D+00                                  
 SETTING MULTIPLICITY   =         1.00000000                                  
 SETTING GEOMTYP        =    XYZ


 Using masses of most abundant isotopes

 **********************************************************************************************************************************


 Atomic masses

 Center       Mass
 H          1.00782
 H          1.00782
 SETTING BASIS          =    DEF2-TZVP


 Recomputing integrals since basis changed


 Using spherical harmonics

 Library entry H      S def2-TZVP            selected for orbital group  1
 Library entry H      P def2-TZVP            selected for orbital group  1


 PROGRAM * SEWARD (Integral evaluation for generally contracted gaussian basis sets)     Author: Roland Lindh, 1990

 Geometry written to block  1 of record 700


 Point group  C2v 



 ATOMIC COORDINATES

 NR  ATOM    CHARGE       X              Y              Z

   1  H       1.00    0.000000000    0.000000000    1.361520373
   2  H       1.00    0.000000000    0.000000000   -0.038712086

 Bond lengths in Bohr (Angstrom)

 1-2  1.400232459
     ( 0.740971107)

 NUCLEAR CHARGE:                    2
 NUMBER OF PRIMITIVE AOS:          16
 NUMBER OF SYMMETRY AOS:           16
 NUMBER OF CONTRACTIONS:           12   (    8A1  +    2B1  +    2B2  +    0A2  )
 NUMBER OF INNER CORE ORBITALS:     0   (    0A1  +    0B1  +    0B2  +    0A2  )
 NUMBER OF OUTER CORE ORBITALS:     0   (    0A1  +    0B1  +    0B2  +    0A2  )
 NUMBER OF VALENCE ORBITALS:        2   (    2A1  +    0B1  +    0B2  +    0A2  )


 NUCLEAR REPULSION ENERGY    0.71416713

 Eigenvalues of metric

         1 0.183E-01 0.810E-01 0.140E+00 0.246E+00 0.596E+00 0.139E+01 0.150E+01 0.403E+01
         2 0.544E+00 0.146E+01
         3 0.544E+00 0.146E+01


 Contracted 2-electron integrals neglected if value below      1.0D-18
 AO integral compression algorithm  1   Integral accuracy      1.0D-18

     2.097 MB (compressed) written to integral file (100.0%)

     Node minimum: 0.262 MB, node maximum: 0.262 MB


 NUMBER OF SORTED TWO-ELECTRON INTEGRALS:         80.     BUFFER LENGTH:  32768
 NUMBER OF SEGMENTS:   1  SEGMENT LENGTH:         80      RECORD LENGTH: 524288

 Memory used in sort:       0.56 MW

 SORT1 READ        1851. AND WROTE          74. INTEGRALS IN      1 RECORDS. CPU TIME:     0.01 SEC, REAL TIME:     0.01 SEC
 SORT2 READ        1275. AND WROTE        1353. INTEGRALS IN      8 RECORDS. CPU TIME:     0.00 SEC, REAL TIME:     0.00 SEC

 Node minimum:          68.  Node maximum:         326. integrals

 OPERATOR DM      FOR CENTER  0  COORDINATES:    0.000000    0.000000    0.000000


 **********************************************************************************************************************************
 DATASETS  * FILE   NREC   LENGTH (MB)   RECORD NAMES
              1      18       28.56       500      610      700      900      950      970     1000      129      960     1100   
                                          VAR    BASINP    GEOM    SYMINP    ZMAT    AOBASIS   BASIS     P2S    ABASIS      S 
                                         1400     1410     1200     1210     1080     1600     1650     1700   
                                           T        V       H0       H01     AOSYM     SMH    MOLCAS    OPER   

 PROGRAMS   *        TOTAL       INT
 CPU TIMES  *         0.38      0.25
 REAL TIME  *         1.32 SEC
 DISK USED  *        28.83 MB (local),      262.66 MB (total)
 GA USED    *         0.00 MB       (max)       0.00 MB       (current)
 **********************************************************************************************************************************


 Program * Restricted Hartree-Fock

 Orbital guess generated from atomic densities.

 Initial occupancy:   1   0   0

 NELEC=    2   SYM=1   MS2= 0   THRE=1.0D-12   THRD=1.0D-06   THRG=1.0D-06  HFMA2=F  DIIS_START=2   DIIS_MAX=10   DIIS_INCORE=F

 Level shifts:    0.00 (CLOSED)    0.00 (OPEN)    0.30 (GAP_MIN)

 ITER           ETOT              DE          GRAD        DDIFF     DIIS  NEXP   TIME(IT)  TIME(TOT)  DIAG
   1       -1.13124400      -1.13124400     0.00D+00     0.63D-01     0     0       0.00      0.01    start
   2       -1.13249180      -0.00124780     0.96D-02     0.50D-02     1     0       0.00      0.01    diag
   3       -1.13253422      -0.00004242     0.15D-02     0.14D-02     2     0       0.00      0.01    diag
   4       -1.13253466      -0.00000044     0.17D-03     0.19D-03     3     0       0.00      0.01    diag
   5       -1.13253466      -0.00000000     0.24D-05     0.87D-06     4     0       0.00      0.01    diag
   6       -1.13253466      -0.00000000     0.14D-06     0.11D-06     5     0       0.00      0.01    diag
   7       -1.13253466       0.00000000     0.18D-09     0.12D-09     0     0       0.00      0.01    diag

 Final occupancy:   1   0   0

 !RHF STATE 1.1 Energy                 -1.132534656996
  RHF One-electron energy              -2.504541073168
  RHF Two-electron energy               0.657839283660
  RHF Kinetic energy                    1.122425174921
  RHF Nuclear energy                    0.714167132512
  RHF Virial quotient                  -1.009006820500

 !RHF STATE 1.1 Dipole moment           0.00000000     0.00000000    -0.00000000
 Dipole moment /Debye                   0.00000000     0.00000000    -0.00000000

 Orbital energies:

           1.1          2.1          3.1
     -0.594431     0.166835     0.308311

           1.2          2.2
      1.420258     2.220320

           1.3          2.3
      1.420258     2.220320


 HOMO      1.1    -0.594431 =     -16.1753eV
 LUMO      2.1     0.166835 =       4.5398eV
 LUMO-HOMO         0.761266 =      20.7151eV

 Orbitals saved in record  2100.2


 **********************************************************************************************************************************
 DATASETS  * FILE   NREC   LENGTH (MB)   RECORD NAMES
              1      18       28.56       500      610      700      900      950      970     1000      129      960     1100   
                                          VAR    BASINP    GEOM    SYMINP    ZMAT    AOBASIS   BASIS     P2S    ABASIS      S 
                                         1400     1410     1200     1210     1080     1600     1650     1700   
                                           T        V       H0       H01     AOSYM     SMH    MOLCAS    OPER   

              2       4        0.36       700     1000      520     2100   
                                         GEOM     BASIS   MCVARS     RHF  

 PROGRAMS   *        TOTAL    HF-SCF       INT
 CPU TIMES  *         0.41      0.03      0.25
 REAL TIME  *         1.60 SEC
 DISK USED  *        28.96 MB (local),      263.75 MB (total)
 GA USED    *         0.00 MB       (max)       0.00 MB       (current)
 **********************************************************************************************************************************


 PROGRAM * MP2 (Closed-shell)     Authors: C. Hampel, H.-J. Werner, 1991, M. Deegan, P.J. Knowles, 1992


 Convergence thresholds:  THRVAR = 1.00D-16  THRDEN = 1.00D-12

 Number of closed-shell orbitals:   1 (   1   0   0   0 )
 Number of external orbitals:      11 (   7   2   2   0 )

 Molecular orbitals read from record     2100.2  Type=RHF/CANONICAL  

 Number of N-1 electron functions:               1
 Number of N-2 electron functions:               1
 Number of singly external CSFs:                 7
 Number of doubly external CSFs:                34
 Total number of CSFs:                          42

 Length of J-op  integral file:               0.00 MB
 Length of K-op  integral file:               0.00 MB

 Integral transformation finished. Total CPU:   0.00 sec, npass=  1  Memory used:   0.07 MW

 Memory needed for MP2:                      0.00 MW

 SCS-MP2 correlation energy:           -0.033306933653   (PS=  1.200000  PT=  0.333333)
 SCS-MP2 total energy:                 -1.165841590649


  Reference energy                     -1.132534656996
  MP2 singlet pair energy              -0.027755778044
  MP2 triplet pair energy               0.000000000000
  MP2 correlation energy               -0.027755778044

 !MP2 total energy                     -1.160290435040

 KEXT needed  1 integral passes. Memory used:   0.03 MW  CPU time:      0.00 sec

 CPHF start vector      0.2 not found

 Starting Coupled-perturbed Hartree-Fock, convergence threshold= 1.0D-06

 ITER  FOCK  DIIS      VAR         VARC       CPU
   1     0     1    0.17D-01    0.00D+00     0.00
   2     1     1    0.43D-02    0.00D+00     0.00
   3     1     2    0.50D-03    0.00D+00     0.00
   4     1     3    0.95D-05    0.00D+00     0.00

 DIIS MATRIX SINGULAR,   0.374D-12 DIIS RESTARTED
   5     1     1    0.22D-05    0.00D+00     0.00
   6     1     2    0.22D-06    0.00D+00     0.00

 CPHF convergence reached in  5 macroiterations and    0 microiterations.   Accuracy: 2.2304D-07

 CPHF solution written to record  4100.2

 Dipole moments (unrelaxed):            0.00000000     0.00000000    -0.00000000
 Orbital relaxation contribution:      -0.00000000    -0.00000000    -0.00000000
 !MP2 STATE 1.1 Dipole moment           0.00000000     0.00000000    -0.00000000
 Dipole moment /Debye                   0.00000000     0.00000000    -0.00000000

 CPU-time for density and lagrangian:                  0.00 sec
 CPU-time for coupled-perturbed hartree-fock:          0.00 sec

 MP2 gradient info saved on record         5200.1


 **********************************************************************************************************************************
 DATASETS  * FILE   NREC   LENGTH (MB)   RECORD NAMES
              1      20       28.57       500      610      700      900      950      970     1000      129      960     1100   
                                          VAR    BASINP    GEOM    SYMINP    ZMAT    AOBASIS   BASIS     P2S    ABASIS      S 
                                         1400     1410     1200     1210     1080     1600     1650     1700     1380     5200   
                                           T        V       H0       H01     AOSYM     SMH    MOLCAS    OPER     JKOP      MP2  

              2       5        0.36       700     1000      520     2100     4100   
                                         GEOM     BASIS   MCVARS     RHF     CPHF   

 PROGRAMS   *        TOTAL       MP2    HF-SCF       INT
 CPU TIMES  *         0.44      0.03      0.03      0.25
 REAL TIME  *         1.64 SEC
 DISK USED  *        28.97 MB (local),      263.77 MB (total)
 SF USED    *         0.01 MB
 GA USED    *         0.00 MB       (max)       0.00 MB       (current)
 **********************************************************************************************************************************


 PROGRAM * HESSIAN

 *** Long output written to logfile /gpfs01/work/emmanous/6Frequencies/implementation/MOLPRO/G4-T'/EXAMPLE_H2/h2.MP2.def2TZVP.log ***


 Computing numerical hessian using default procedure for command MP2

 Symmetry elements for unique displacements: X  Y  

 Using AUTO symmetry option

 Running default procedure: HF-SCF000  MP2


 Numerically approximating hessian using central gradient differences

 Task list generated. Total number of displacements:      8

 All   8 tasks completed.  CPU=      0.75 sec, Elapsed=      0.92 sec.

 MP2 hessian saved to record  5300.2

 PROGRAM * FREQUENCIES (Calculation of harmonic vibrational spectra for MP2)


 Permanent Dipole Moment [debye]
   1-  3    0.000000    0.000000    0.000000

 Dipole Moment Norm    0.0000000 [debye]

 Dipole Moment Derivatives [debye/ang]
              1             2             3             4             5             6
    1    0.00000008    0.00000000    0.00000000    0.00000008    0.00000000    0.00000000
    2    0.00000000    0.00000008    0.00000000    0.00000000    0.00000008    0.00000000
    3    0.00000000    0.00000000    0.00000000    0.00000000    0.00000000    0.00000000

 Force Constants (Second Derivatives of the Energy) in [a.u.]
                             HX1         HY1         HZ1         HX2         HY2     
           HX1           0.0018177
           HY1           0.0000000   0.0018177
           HZ1           0.0000000   0.0000000   0.3852690
           HX2          -0.0018177   0.0000000   0.0000000   0.0018177
           HY2           0.0000000  -0.0018177   0.0000000   0.0000000   0.0018177
           HZ2           0.0000000   0.0000000  -0.3852690   0.0000000   0.0000000
                             HZ2     
           HZ2           0.3852690


 Atomic Masses
   1-  2    1.007825    1.007825

 Mass weighted Second Derivative Matrix
                             HX1         HY1         HZ1         HX2         HY2     
           HX1           0.0018036
           HY1           0.0000000   0.0018036
           HZ1           0.0000000   0.0000000   0.3822777
           HX2          -0.0018036   0.0000000   0.0000000   0.0018036
           HY2           0.0000000  -0.0018036   0.0000000   0.0000000   0.0018036
           HZ2           0.0000000   0.0000000  -0.3822777   0.0000000   0.0000000
                             HZ2     
           HZ2           0.3822777


 Mass Weighted 2nd Derivative Matrix Eigenvalues
   1-  6    0.000000    0.000000    0.000000    0.003607    0.003607    0.764555

 Mass Weighted 2nd Derivative Matrix Eigenvectors
              1             2             3             4             5             6
    1   -0.02076672    0.70680177    0.00000000    0.70710662   -0.00047266    0.00000000
    2    0.70680176    0.02076672    0.00014087    0.00047266    0.70710662    0.00000000
    3   -0.00014081   -0.00000414    0.70710677    0.00000000    0.00000000    0.70710678
    4   -0.02076672    0.70680177    0.00000000   -0.70710662    0.00047266    0.00000000
    5    0.70680176    0.02076672    0.00014087   -0.00047266   -0.70710662    0.00000000
    6   -0.00014081   -0.00000414    0.70710677    0.00000000    0.00000000   -0.70710678

   Low Vibration      Wavenumber
        Nr             [1/cm] 
        1                0.00
        2                0.00
        3                0.00

     Vibration        Wavenumber
        Nr             [1/cm] 
        1              308.74
        2              308.74
        3             4494.78

 FREQUENCIES * CALCULATION OF NORMAL MODES FOR MP2


 Atomic Coordinates

  Nr  Atom  Charge       X              Y              Z

   1   H     1.00    0.000000000    0.000000000    1.361520373
   2   H     1.00    0.000000000    0.000000000   -0.038712086

 Normal Modes

                              1 B2g       2 Err       3 Err
 Wavenumbers [cm-1]          308.74      308.74     4494.78
 Intensities [km/mol]          0.00        0.00        0.00
 Intensities [relative]        0.00        0.00        0.00
           HX1              0.70436    -0.00047     0.00000
           HY1              0.00047     0.70436    -0.00000
           HZ1             -0.00000    -0.00000     0.70436
           HX2             -0.70436     0.00047    -0.00000
           HY2             -0.00047    -0.70436     0.00000
           HZ2             -0.00000    -0.00000    -0.70436


 Normal Modes of low/zero frequencies

                                  1           2           3
 Wavenumbers [cm-1]            0.00        0.00        0.00
 Intensities [km/mol]          0.00        0.00        0.00
 Intensities [relative]        0.00        0.00        0.00
           HX1             -0.02069     0.70405     0.00000
           HY1              0.70405     0.02069     0.00014
           HZ1             -0.00014    -0.00000     0.70436
           HX2             -0.02069     0.70405     0.00000
           HY2              0.70405     0.02069     0.00014
           HZ2             -0.00014    -0.00000     0.70436


 Frequencies dumped to record   5400.2

 Zero point energy:  0.01164659 [H]     2556.13 [1/CM]       30.58 [KJ/MOL]
 Frequency information read from record  5400.2

 Recomputing wavefunction at initial geometry


 **********************************************************************************************************************************
 DATASETS  * FILE   NREC   LENGTH (MB)   RECORD NAMES
              1      20       28.57       500      610      700      900      950      970     1000      129      960     1100   
                                          VAR    BASINP    GEOM    SYMINP    ZMAT    AOBASIS   BASIS     P2S    ABASIS      S 
                                         1400     1410     1200     1210     1080     1600     1650     1700     1380     5200   
                                           T        V       H0       H01     AOSYM     SMH    MOLCAS    OPER     JKOP      MP2  

              2       8        0.36       700     1000      520     2100     4100     5300     5450     5400   
                                         GEOM     BASIS   MCVARS     RHF     CPHF     HESS     NMOD     FREQ   

 PROGRAMS   *        TOTAL      FREQ       MP2    HF-SCF       INT
 CPU TIMES  *         1.88      1.43      0.03      0.03      0.25
 REAL TIME  *         3.65 SEC
 DISK USED  *        33.83 MB (local),      301.90 MB (total)
 SF USED    *         0.01 MB
 GA USED    *         0.00 MB       (max)       0.00 MB       (current)
 **********************************************************************************************************************************

 MP2/DEF2-TZVP energy=     -1.160290435040

             MP2          HF-SCF
     -1.16029044     -1.13253466
 **********************************************************************************************************************************
 Molpro calculation terminated
