
 Working directory              : /scratch/emmanous/hf.MP2.anopVTZ.com.45229/molpro.6vMgcIQf4V/
 Global scratch directory       : /scratch/emmanous/hf.MP2.anopVTZ.com.45229/molpro.6vMgcIQf4V/
 Wavefunction directory         : /home/emmanous/wfu/
 Main file repository           : /scratch/emmanous/hf.MP2.anopVTZ.com.45229/molpro.6vMgcIQf4V/

 id        : wis

 Nodes     nprocs
 cff147       8
 GA implementation: MPI file
 GA implementation (serial work in mppx): MPI file

 Using DEFAULT tuning parameter for ncache   :   16384
 Using DEFAULT tuning parameter for mflopdgm :   10000
 Using DEFAULT tuning parameter for mflopdgv :    4000
 Using DEFAULT tuning parameter for mflopmxm :    5000
 Using DEFAULT tuning parameter for mflopmxv :    4000
 Using DEFAULT tuning parameter for mindgm   :       1
 Using DEFAULT tuning parameter for mindgc   :       4
 Using DEFAULT tuning parameter for mindgf   :    5000
 Using DEFAULT tuning parameter for mindgl   :       4
 Using DEFAULT tuning parameter for mindgr   :       1
 Using DEFAULT tuning parameter for mindgv   :      20
 Using DEFAULT tuning parameter for mincuda  :     500
 Using DEFAULT tuning parameter for mxmblk   :      64
 Using DEFAULT tuning parameter for mxmbln   :      64
 Using DEFAULT tuning parameter for nroll    :       2
 Using custom tuning parameter for ngpus     :       0
 Using customized tuning parameters: mindgm=1; mindgv=20; mindgc=4; mindgr=1; noblas=0; minvec=7

 Fortran compiler: integer size=8, double size=8, logical size=8
 default implementation of scratch files=sf  


 Variables initialized (1015), CPU time= 0.00 sec
 gthresh,energy=1d-12,gradient=1d-6,twoint=1d-18,prefac=1d-20
 noorient
 charge=0
 multiplicity=1
 geomtyp=xyz
 geom={
  F          0.0000000000        0.0000000000        0.0927016595
  H          0.0000000000        0.0000000000       -0.8253166595
 }
 MASS,ISO
 MASS,PRINT
 
 basis={
 Including file /gpfs01/work/emmanous/6Frequencies/implementation/MOLPRO/G4-Tano-v1/EXAMPLE_HF/ano-pVTZ.mbas
 }
 hf
 mp2
 {freq,analytic,print=3;noproject}
 Commands initialized (834), CPU time= 0.01 sec, 672 directives.
 Default parameters read. Elapsed time= 0.07 sec

 Using DEFAULT tuning parameter for mpplat   :       3
 Using DEFAULT tuning parameter for mppspeed :    1600
 Checking input...
 Passed
1


                                         ***  PROGRAM SYSTEM MOLPRO  ***
                                       Copyright, TTI GmbH Stuttgart, 2015
                                    Version 2022.2 linked Thu May  5 23:39:45 2022


 **********************************************************************************************************************************
 LABEL *                                                                                 
  64 bit mpp version                                                                     DATE: 12-Aug-23          TIME: 09:58:38  
 **********************************************************************************************************************************

 SHA1:             518bf5c5e315925380b88506c70af759aa1d1d96
 **********************************************************************************************************************************

 Memory per process:      1500 MW
 Total memory per node:  12000 MW

 GA preallocation disabled
 GA check disabled

 Variable memory set to 1500.0 MW


 THRESHOLDS:

 ZERO    =  1.00D-12  ONEINT  =  1.00D-12  TWOINT  =  1.00D-18  PREFAC  =  1.00D-20  XXXXXX  =  1.00D-09  EORDER  =  1.00D-04
 ENERGY  =  1.00D-12  ETEST   =  0.00D+00  EDENS   =  0.00D+00  THRDEDEF=  1.00D-06  GRADIENT=  1.00D-06  STEP    =  1.00D-03
 ORBITAL =  1.00D-05  CIVEC   =  1.00D-05  COEFF   =  1.00D-04  PRINTCI =  5.00D-02  PUNCHCI =  9.90D+01  OPTGRAD =  3.00D-04
 OPTENERG=  1.00D-06  OPTSTEP =  3.00D-04  THRGRAD =  1.00D-10  COMPRESS=  1.00D-11  VARMIN  =  1.00D-07  VARMAX  =  1.00D-03
 THRDOUB =  0.00D+00  THRDIV  =  1.00D-05  THRRED  =  1.00D-07  THRPSP  =  1.00D+00  THRDC   =  1.00D-10  THRCS   =  1.00D-10
 THRNRM  =  1.00D-08  THREQ   =  0.00D+00  THRDE   =  1.00D+00  THRREF  =  1.00D-05  SPARFAC =  1.00D+00  THRDLP  =  1.00D-07
 THRDIA  =  1.00D-10  THRDLS  =  1.00D-07  THRGPS  =  0.00D+00  THRKEX  =  0.00D+00  THRDIS  =  2.00D-01  THRVAR  =  1.00D-10
 THRLOC  =  1.00D-06  THRGAP  =  1.00D-06  THRLOCT = -1.00D+00  THRGAPT = -1.00D+00  THRORB  =  1.00D-06  THRMLTP =  0.00D+00
 THRCPQCI=  1.00D-10  KEXTA   =  0.00D+00  THRCOARS=  0.00D+00  SYMTOL  =  1.00D-06  GRADTOL =  1.00D-06  THROVL  =  1.00D-08
 THRORTH =  1.00D-08  THRDLOVL= -1.00D+00  GRID    =  1.00D-06  GRIDMAX =  1.00D-03  DTMAX   =  0.00D+00  THROCCDE=  1.00D-01
 THROCCDE=  1.00D-01  THRPRINT=  2.50D-01

 SETTING CHARGE         =      0.0000000D+00                                  
 SETTING MULTIPLICITY   =         1.00000000                                  
 SETTING GEOMTYP        =    XYZ


 Using masses of most abundant isotopes

 **********************************************************************************************************************************


 Atomic masses

 Center       Mass
 F         18.99840
 H          1.00782
 SETTING BASIS          =    USERDEF


 Recomputing integrals since basis changed


 Using spherical harmonics



 PROGRAM * SEWARD (Integral evaluation for generally contracted gaussian basis sets)     Author: Roland Lindh, 1990

 Geometry written to block  1 of record 700


 Point group  C2v 



 ATOMIC COORDINATES

 NR  ATOM    CHARGE       X              Y              Z

   1  F       9.00    0.000000000    0.000000000    0.175180748
   2  H       1.00    0.000000000    0.000000000   -1.559622453

 Bond lengths in Bohr (Angstrom)

 1-2  1.734803200
     ( 0.918018319)

 NUCLEAR CHARGE:                   10
 NUMBER OF PRIMITIVE AOS:         166
 NUMBER OF SYMMETRY AOS:          145
 NUMBER OF CONTRACTIONS:           44   (   20A1  +   10B1  +   10B2  +    4A2  )
 NUMBER OF INNER CORE ORBITALS:     0   (    0A1  +    0B1  +    0B2  +    0A2  )
 NUMBER OF OUTER CORE ORBITALS:     1   (    1A1  +    0B1  +    0B2  +    0A2  )
 NUMBER OF VALENCE ORBITALS:        5   (    3A1  +    1B1  +    1B2  +    0A2  )


 NUCLEAR REPULSION ENERGY    5.18790835

 EXTRA SYMMETRY OF AOS IN SYMMETRY 1:   1 1 1 1 1 1 1 1 2 1   2 1 2 1 1 1 1 1 1 2
 EXTRA SYMMETRY OF AOS IN SYMMETRY 2:   1 1 1 1 1 1 2 1 1 1
 EXTRA SYMMETRY OF AOS IN SYMMETRY 3:   1 1 1 1 1 1 2 1 1 1

 Eigenvalues of metric

         1 0.153E-02 0.720E-01 0.908E-01 0.487E+00 0.592E+00 0.705E+00 0.787E+00 0.100E+01
         2 0.395E-01 0.471E+00 0.693E+00 0.100E+01 0.100E+01 0.100E+01 0.100E+01 0.135E+01
         3 0.395E-01 0.471E+00 0.693E+00 0.100E+01 0.100E+01 0.100E+01 0.100E+01 0.135E+01
         4 0.487E+00 0.100E+01 0.100E+01 0.151E+01


 Contracted 2-electron integrals neglected if value below      1.0D-18
 AO integral compression algorithm  1   Integral accuracy      1.0D-18

     2.097 MB (compressed) written to integral file (100.0%)

     Node minimum: 0.262 MB, node maximum: 0.262 MB


 NUMBER OF SORTED TWO-ELECTRON INTEGRALS:      15662.     BUFFER LENGTH:  32768
 NUMBER OF SEGMENTS:   1  SEGMENT LENGTH:      15662      RECORD LENGTH: 524288

 Memory used in sort:       0.57 MW

 SORT1 READ      164934. AND WROTE       12565. INTEGRALS IN      1 RECORDS. CPU TIME:     0.01 SEC, REAL TIME:     0.01 SEC
 SORT2 READ      108729. AND WROTE      137265. INTEGRALS IN      8 RECORDS. CPU TIME:     0.00 SEC, REAL TIME:     0.01 SEC

 Node minimum:       15662.  Node maximum:       18133. integrals

 OPERATOR DM      FOR CENTER  0  COORDINATES:    0.000000    0.000000    0.000000


 **********************************************************************************************************************************
 DATASETS  * FILE   NREC   LENGTH (MB)   RECORD NAMES
              1      18       28.84       500      610      700      900      950      970     1000      129      960     1100   
                                          VAR    BASINP    GEOM    SYMINP    ZMAT    AOBASIS   BASIS     P2S    ABASIS      S 
                                         1400     1410     1200     1210     1080     1600     1650     1700   
                                           T        V       H0       H01     AOSYM     SMH    MOLCAS    OPER   

 PROGRAMS   *        TOTAL       INT
 CPU TIMES  *         0.56      0.43
 REAL TIME  *         1.53 SEC
 DISK USED  *        29.13 MB (local),      266.10 MB (total)
 GA USED    *         0.00 MB       (max)       0.00 MB       (current)
 **********************************************************************************************************************************


 Program * Restricted Hartree-Fock

 Orbital guess generated from atomic densities.

 Initial occupancy:   3   1   1   0

 NELEC=   10   SYM=1   MS2= 0   THRE=1.0D-12   THRD=1.0D-06   THRG=1.0D-06  HFMA2=F  DIIS_START=2   DIIS_MAX=10   DIIS_INCORE=F

 Level shifts:    0.00 (CLOSED)    0.00 (OPEN)    0.30 (GAP_MIN)

 ITER           ETOT              DE          GRAD        DDIFF     DIIS  NEXP   TIME(IT)  TIME(TOT)  DIAG
   1     -100.04128395    -100.04128395     0.00D+00     0.23D+00     0     0       0.00      0.01    start
   2     -100.06248171      -0.02119776     0.24D-01     0.12D-01     1     0       0.00      0.01    diag
   3     -100.06906800      -0.00658629     0.14D-01     0.36D-02     2     0       0.00      0.01    diag
   4     -100.06918716      -0.00011916     0.13D-02     0.70D-03     3     0       0.00      0.01    diag
   5     -100.06920397      -0.00001681     0.40D-03     0.34D-03     4     0       0.00      0.01    diag
   6     -100.06920525      -0.00000128     0.90D-04     0.99D-04     5     0       0.00      0.01    diag
   7     -100.06920528      -0.00000003     0.14D-04     0.14D-04     6     0       0.00      0.01    diag
   8     -100.06920528      -0.00000000     0.13D-05     0.11D-05     7     0       0.00      0.01    fixocc
   9     -100.06920528      -0.00000000     0.12D-06     0.13D-06     8     0       0.00      0.01    diag
  10     -100.06920528      -0.00000000     0.90D-08     0.62D-08     9     0       0.00      0.01    diag/orth
  11     -100.06920528       0.00000000     0.70D-09     0.34D-09     0     0       0.00      0.01    diag

 Final occupancy:   3   1   1   0

 !RHF STATE 1.1 Energy               -100.069205278886
  RHF One-electron energy            -150.602679868874
  RHF Two-electron energy              45.345566244852
  RHF Kinetic energy                  100.036650809863
  RHF Nuclear energy                    5.187908345135
  RHF Virial quotient                  -1.000325425419

 !RHF STATE 1.1 Dipole moment           0.00000000     0.00000000    -0.76533576
 Dipole moment /Debye                   0.00000000     0.00000000    -1.94528948

 Orbital energies:

           1.1          2.1          3.1          4.1          5.1
    -26.292152    -1.599149    -0.766040     0.209159     0.714489

           1.2          2.2          3.2
     -0.649216     0.744746     1.025751

           1.3          2.3          3.3
     -0.649216     0.744746     1.025751

           1.4          2.4
      1.709901     2.663010


 HOMO      1.3    -0.649216 =     -17.6661eV
 LUMO      4.1     0.209159 =       5.6915eV
 LUMO-HOMO         0.858375 =      23.3576eV

 Orbitals saved in record  2100.2


 **********************************************************************************************************************************
 DATASETS  * FILE   NREC   LENGTH (MB)   RECORD NAMES
              1      18       28.84       500      610      700      900      950      970     1000      129      960     1100   
                                          VAR    BASINP    GEOM    SYMINP    ZMAT    AOBASIS   BASIS     P2S    ABASIS      S 
                                         1400     1410     1200     1210     1080     1600     1650     1700   
                                           T        V       H0       H01     AOSYM     SMH    MOLCAS    OPER   

              2       4        0.38       700     1000      520     2100   
                                         GEOM     BASIS   MCVARS     RHF  

 PROGRAMS   *        TOTAL    HF-SCF       INT
 CPU TIMES  *         0.70      0.14      0.43
 REAL TIME  *         1.81 SEC
 DISK USED  *        29.32 MB (local),      267.60 MB (total)
 GA USED    *         0.00 MB       (max)       0.00 MB       (current)
 **********************************************************************************************************************************


 PROGRAM * MP2 (Closed-shell)     Authors: C. Hampel, H.-J. Werner, 1991, M. Deegan, P.J. Knowles, 1992


 Convergence thresholds:  THRVAR = 1.00D-16  THRDEN = 1.00D-12

 Number of core orbitals:           1 (   1   0   0   0 )
 Number of closed-shell orbitals:   4 (   2   1   1   0 )
 Number of external orbitals:      39 (  17   9   9   4 )

 Molecular orbitals read from record     2100.2  Type=RHF/CANONICAL  

 Number of N-1 electron functions:               4
 Number of N-2 electron functions:              10
 Number of singly external CSFs:                52
 Number of doubly external CSFs:              3289
 Total number of CSFs:                        3342

 Length of J-op  integral file:               0.00 MB
 Length of K-op  integral file:               0.04 MB

 Integral transformation finished. Total CPU:   0.00 sec, npass=  1  Memory used:   0.07 MW

 Memory needed for MP2:                      0.00 MW

 SCS-MP2 correlation energy:           -0.273139776839   (PS=  1.200000  PT=  0.333333)
 SCS-MP2 total energy:               -100.342345055726


  Reference energy                   -100.069205278886
  MP2 singlet pair energy              -0.172152685262
  MP2 triplet pair energy              -0.106965891201
  MP2 correlation energy               -0.279118576463

 !MP2 total energy                   -100.348323855349

 KEXT needed  1 integral passes. Memory used:   0.05 MW  CPU time:      0.00 sec

 CPHF start vector      0.2 not found

 Starting Coupled-perturbed Hartree-Fock, convergence threshold= 1.0D-06

 ITER   MIC  DIIS      VAR         VARC       CPU
   1     0     1    0.12D-01    0.74D-03     0.00
   2     5     2    0.43D-03    0.44D-04     0.00
   3     4     3    0.65D-05    0.37D-06     0.00
   4     2     4    0.25D-06    0.34D-07     0.00

 CPHF convergence reached in  4 macroiterations and   11 microiterations.   Accuracy: 2.5320D-07

 CPHF solution written to record  4100.2

 Dipole moments (unrelaxed):            0.00000000     0.00000000    -0.75053986
 Orbital relaxation contribution:      -0.00000000    -0.00000000     0.03463998
 !MP2 STATE 1.1 Dipole moment           0.00000000     0.00000000    -0.71589988
 Dipole moment /Debye                   0.00000000     0.00000000    -1.81963599

 CPU-time for density and lagrangian:                  0.00 sec
 CPU-time for coupled-perturbed hartree-fock:          0.00 sec

 MP2 gradient info saved on record         5200.1


 **********************************************************************************************************************************
 DATASETS  * FILE   NREC   LENGTH (MB)   RECORD NAMES
              1      20       28.96       500      610      700      900      950      970     1000      129      960     1100   
                                          VAR    BASINP    GEOM    SYMINP    ZMAT    AOBASIS   BASIS     P2S    ABASIS      S 
                                         1400     1410     1200     1210     1080     1600     1650     1700     1380     5200   
                                           T        V       H0       H01     AOSYM     SMH    MOLCAS    OPER     JKOP      MP2  

              2       5        0.41       700     1000      520     2100     4100   
                                         GEOM     BASIS   MCVARS     RHF     CPHF   

 PROGRAMS   *        TOTAL       MP2    HF-SCF       INT
 CPU TIMES  *         0.78      0.08      0.14      0.43
 REAL TIME  *         1.91 SEC
 DISK USED  *        29.42 MB (local),      268.43 MB (total)
 SF USED    *         0.27 MB
 GA USED    *         0.00 MB       (max)       0.00 MB       (current)
 **********************************************************************************************************************************


 PROGRAM * HESSIAN

 *** Long output written to logfile /gpfs01/work/emmanous/6Frequencies/implementation/MOLPRO/G4-Tano-v1/EXAMPLE_HF/hf.MP2.anopVTZ.log ***


 Computing numerical hessian using default procedure for command MP2

 Symmetry elements for unique displacements: X  Y  

 Using AUTO symmetry option

 Running default procedure: HF-SCF000  MP2


 Numerically approximating hessian using central gradient differences

 Task list generated. Total number of displacements:      8

 All   8 tasks completed.  CPU=      3.65 sec, Elapsed=      3.81 sec.

 MP2 hessian saved to record  5300.2

 PROGRAM * FREQUENCIES (Calculation of harmonic vibrational spectra for MP2)


 Permanent Dipole Moment [debye]
   1-  3    0.000000    0.000000   -1.819636

 Dipole Moment Norm    1.8196360 [debye]

 Dipole Moment Derivatives [debye/ang]
              1             2             3             4             5             6
    1   -1.98213252    0.00000000    0.00000000    1.98213331    0.00000000    0.00000000
    2    0.00000000   -1.98213252    0.00000000    0.00000000    1.98213331    0.00000000
    3    0.00000000    0.00000000   -1.62047840    0.00000000    0.00000000    1.62047840

 Force Constants (Second Derivatives of the Energy) in [a.u.]
                             FX1         FY1         FZ1         HX2         HY2     
           FX1          -0.0022817
           FY1           0.0000000  -0.0022817
           FZ1           0.0000000   0.0000000   0.6381942
           HX2           0.0022818   0.0000000   0.0000000  -0.0022818
           HY2           0.0000000   0.0022818   0.0000000   0.0000000  -0.0022818
           HZ2           0.0000000   0.0000000  -0.6381942   0.0000000   0.0000000
                             HZ2     
           HZ2           0.6381942


 Atomic Masses
   1-  2   18.998400    1.007825

 Mass weighted Second Derivative Matrix
                             FX1         FY1         FZ1         HX2         HY2     
           FX1          -0.0001201
           FY1           0.0000000  -0.0001201
           FZ1           0.0000000   0.0000000   0.0335920
           HX2           0.0005215   0.0000000   0.0000000  -0.0022641
           HY2           0.0000000   0.0005215   0.0000000   0.0000000  -0.0022641
           HZ2           0.0000000   0.0000000  -0.1458484   0.0000000   0.0000000
                             HZ2     
           HZ2           0.6332391


 Mass Weighted 2nd Derivative Matrix Eigenvalues
   1-  6   -0.002384   -0.002384    0.000000    0.000000    0.000000    0.666831

 Mass Weighted 2nd Derivative Matrix Eigenvectors
              1             2             3             4             5             6
    1   -0.22444297    0.00000000    0.00000000    0.97448705    0.00059156    0.00000000
    2    0.00000000   -0.22444297   -0.00027169   -0.00059156    0.97448701    0.00000000
    3    0.00000000    0.00000000    0.97448671   -0.00000017    0.00027169   -0.22444503
    4    0.97448723    0.00000000    0.00000000    0.22444293    0.00013625    0.00000000
    5    0.00000000    0.97448723   -0.00006257   -0.00013625    0.22444292    0.00000000
    6    0.00000000    0.00000000    0.22444502   -0.00000004    0.00006258    0.97448675

 Imaginary Vibration  Wavenumber
        Nr             [1/cm] 
        1              251.00
        2              251.00

   Low Vibration      Wavenumber
        Nr             [1/cm] 
        1                0.00
        2                0.00
        3                0.00

     Vibration        Wavenumber
        Nr             [1/cm] 
        1             4197.71

 FREQUENCIES * CALCULATION OF NORMAL MODES FOR MP2


 Atomic Coordinates

  Nr  Atom  Charge       X              Y              Z

   1   F     9.00    0.000000000    0.000000000    0.175180748
   2   H     1.00    0.000000000    0.000000000   -1.559622453

 Normal Modes

                              1 A1 
 Wavenumbers [cm-1]         4197.71
 Intensities [km/mol]        115.94
 Intensities [relative]       66.84
           FX1              0.00000
           FY1             -0.00000
           FZ1             -0.05149
           HX2              0.00000
           HY2             -0.00000
           HZ2              0.97070


 Normal Modes of imaginary frequencies

                                  1           2
 Wavenumbers [cm-1]          251.00      251.00
 Intensities [km/mol]        173.47      173.47
 Intensities [relative]      100.00      100.00
           FX1             -0.05149     0.00000
           FY1             -0.00000    -0.05149
           FZ1              0.00000     0.00000
           HX2              0.97070    -0.00000
           HY2              0.00000     0.97070
           HZ2              0.00000     0.00000


 Normal Modes of low/zero frequencies

                                  1           2           3
 Wavenumbers [cm-1]            0.00        0.00        0.00
 Intensities [km/mol]          0.00        0.00        0.00
 Intensities [relative]        0.00        0.00        0.00
           FX1              0.00000     0.22357     0.00014
           FY1             -0.00006    -0.00014     0.22357
           FZ1              0.22357    -0.00000     0.00006
           HX2              0.00000     0.22357     0.00014
           HY2             -0.00006    -0.00014     0.22357
           HZ2              0.22357    -0.00000     0.00006


 Frequencies dumped to record   5400.2

 Zero point energy:  0.00956308 [H]     2098.85 [1/CM]       25.11 [KJ/MOL]
 Frequency information read from record  5400.2

 Recomputing wavefunction at initial geometry


 **********************************************************************************************************************************
 DATASETS  * FILE   NREC   LENGTH (MB)   RECORD NAMES
              1      20       28.96       500      610      700      900      950      970     1000      129      960     1100   
                                          VAR    BASINP    GEOM    SYMINP    ZMAT    AOBASIS   BASIS     P2S    ABASIS      S 
                                         1400     1410     1200     1210     1080     1600     1650     1700     1380     5200   
                                           T        V       H0       H01     AOSYM     SMH    MOLCAS    OPER     JKOP      MP2  

              2       8        0.42       700     1000      520     2100     4100     5300     5450     5400   
                                         GEOM     BASIS   MCVARS     RHF     CPHF     HESS     NMOD     FREQ   

 PROGRAMS   *        TOTAL      FREQ       MP2    HF-SCF       INT
 CPU TIMES  *         5.11      4.33      0.08      0.14      0.43
 REAL TIME  *         7.77 SEC
 DISK USED  *        36.47 MB (local),      318.93 MB (total)
 SF USED    *         0.27 MB
 GA USED    *         0.00 MB       (max)       0.00 MB       (current)
 **********************************************************************************************************************************

 MP2/USERDEF energy=   -100.348323855547

             MP2          HF-SCF
   -100.34832386   -100.06920528
 **********************************************************************************************************************************
 Molpro calculation terminated
