
Host: cff147

Timers On : Sat Aug 12 09:59:10 2023
Timers Off: Sat Aug 12 09:59:20 2023

Wall Time:        9.10 seconds

                                                       Time (seconds)
Module                                       User      System        Wall        Calls

--------------------------------------------------------------------------------------

**************************************************************************************
