
 Working directory              : /scratch/emmanous/hf.HF.def2TZVPPDprime.com.10359/molpro.CI8o7fD520/
 Global scratch directory       : /scratch/emmanous/hf.HF.def2TZVPPDprime.com.10359/molpro.CI8o7fD520/
 Wavefunction directory         : /home/emmanous/wfu/
 Main file repository           : /scratch/emmanous/hf.HF.def2TZVPPDprime.com.10359/molpro.CI8o7fD520/

 id        : wis

 Nodes     nprocs
 cff164       8
 GA implementation: MPI file
 GA implementation (serial work in mppx): MPI file

 Using DEFAULT tuning parameter for ncache   :   16384
 Using DEFAULT tuning parameter for mflopdgm :   10000
 Using DEFAULT tuning parameter for mflopdgv :    4000
 Using DEFAULT tuning parameter for mflopmxm :    5000
 Using DEFAULT tuning parameter for mflopmxv :    4000
 Using DEFAULT tuning parameter for mindgm   :       1
 Using DEFAULT tuning parameter for mindgc   :       4
 Using DEFAULT tuning parameter for mindgf   :    5000
 Using DEFAULT tuning parameter for mindgl   :       4
 Using DEFAULT tuning parameter for mindgr   :       1
 Using DEFAULT tuning parameter for mindgv   :      20
 Using DEFAULT tuning parameter for mincuda  :     500
 Using DEFAULT tuning parameter for mxmblk   :      64
 Using DEFAULT tuning parameter for mxmbln   :      64
 Using DEFAULT tuning parameter for nroll    :       2
 Using custom tuning parameter for ngpus     :       0
 Using customized tuning parameters: mindgm=1; mindgv=20; mindgc=4; mindgr=1; noblas=0; minvec=7

 Fortran compiler: integer size=8, double size=8, logical size=8
 default implementation of scratch files=sf  


 Variables initialized (1015), CPU time= 0.01 sec
 gthresh,energy=1d-12,gradient=1d-6,twoint=1d-18,prefac=1d-20
 noorient
 charge=0
 multiplicity=1
 geomtyp=xyz
 geom={
  F          0.0000000000        0.0000000000        0.0921073674
  H          0.0000000000        0.0000000000       -0.8247223674
 }
 MASS,ISO
 MASS,PRINT
 
 basis,def2-TZVPPD,h=def2-TZVPP
 hf
 {freq,analytic,print=3;noproject}
 
 Commands initialized (834), CPU time= 0.01 sec, 672 directives.
 Default parameters read. Elapsed time= 0.07 sec

 Using DEFAULT tuning parameter for mpplat   :       3
 Using DEFAULT tuning parameter for mppspeed :    1600
 Checking input...
 Passed
1


                                         ***  PROGRAM SYSTEM MOLPRO  ***
                                       Copyright, TTI GmbH Stuttgart, 2015
                                    Version 2022.2 linked Thu May  5 23:39:45 2022


 **********************************************************************************************************************************
 LABEL *                                                                                 
  64 bit mpp version                                                                     DATE: 12-Aug-23          TIME: 11:14:12  
 **********************************************************************************************************************************

 SHA1:             518bf5c5e315925380b88506c70af759aa1d1d96
 **********************************************************************************************************************************

 Memory per process:      1500 MW
 Total memory per node:  12000 MW

 GA preallocation disabled
 GA check disabled

 Variable memory set to 1500.0 MW


 THRESHOLDS:

 ZERO    =  1.00D-12  ONEINT  =  1.00D-12  TWOINT  =  1.00D-18  PREFAC  =  1.00D-20  XXXXXX  =  1.00D-09  EORDER  =  1.00D-04
 ENERGY  =  1.00D-12  ETEST   =  0.00D+00  EDENS   =  0.00D+00  THRDEDEF=  1.00D-06  GRADIENT=  1.00D-06  STEP    =  1.00D-03
 ORBITAL =  1.00D-05  CIVEC   =  1.00D-05  COEFF   =  1.00D-04  PRINTCI =  5.00D-02  PUNCHCI =  9.90D+01  OPTGRAD =  3.00D-04
 OPTENERG=  1.00D-06  OPTSTEP =  3.00D-04  THRGRAD =  1.00D-10  COMPRESS=  1.00D-11  VARMIN  =  1.00D-07  VARMAX  =  1.00D-03
 THRDOUB =  0.00D+00  THRDIV  =  1.00D-05  THRRED  =  1.00D-07  THRPSP  =  1.00D+00  THRDC   =  1.00D-10  THRCS   =  1.00D-10
 THRNRM  =  1.00D-08  THREQ   =  0.00D+00  THRDE   =  1.00D+00  THRREF  =  1.00D-05  SPARFAC =  1.00D+00  THRDLP  =  1.00D-07
 THRDIA  =  1.00D-10  THRDLS  =  1.00D-07  THRGPS  =  0.00D+00  THRKEX  =  0.00D+00  THRDIS  =  2.00D-01  THRVAR  =  1.00D-10
 THRLOC  =  1.00D-06  THRGAP  =  1.00D-06  THRLOCT = -1.00D+00  THRGAPT = -1.00D+00  THRORB  =  1.00D-06  THRMLTP =  0.00D+00
 THRCPQCI=  1.00D-10  KEXTA   =  0.00D+00  THRCOARS=  0.00D+00  SYMTOL  =  1.00D-06  GRADTOL =  1.00D-06  THROVL  =  1.00D-08
 THRORTH =  1.00D-08  THRDLOVL= -1.00D+00  GRID    =  1.00D-06  GRIDMAX =  1.00D-03  DTMAX   =  0.00D+00  THROCCDE=  1.00D-01
 THROCCDE=  1.00D-01  THRPRINT=  2.50D-01

 SETTING CHARGE         =      0.0000000D+00                                  
 SETTING MULTIPLICITY   =         1.00000000                                  
 SETTING GEOMTYP        =    XYZ


 Using masses of most abundant isotopes

 **********************************************************************************************************************************


 Atomic masses

 Center       Mass
 F         18.99840
 H          1.00782
 SETTING BASIS          =    DEF2-TZVPPD,H=DEF2-TZVPP


 Recomputing integrals since basis changed


 Using spherical harmonics

 Library entry F      S def2-TZVPPD          selected for orbital group  1
 Library entry F      P def2-TZVPPD          selected for orbital group  1
 Library entry F      D def2-TZVPPD          selected for orbital group  1
 Library entry F      F def2-TZVPPD          selected for orbital group  1
 Library entry H      S def2-TZVPP           selected for orbital group  2
 Library entry H      P def2-TZVPP           selected for orbital group  2
 Library entry H      D def2-TZVPP           selected for orbital group  2


 PROGRAM * SEWARD (Integral evaluation for generally contracted gaussian basis sets)     Author: Roland Lindh, 1990

 Geometry written to block  1 of record 700


 Point group  C2v 



 ATOMIC COORDINATES

 NR  ATOM    CHARGE       X              Y              Z

   1  F       9.00    0.000000000    0.000000000    0.174057698
   2  H       1.00    0.000000000    0.000000000   -1.558499403

 Bond lengths in Bohr (Angstrom)

 1-2  1.732557102
     ( 0.916829735)

 NUCLEAR CHARGE:                   10
 NUMBER OF PRIMITIVE AOS:          78
 NUMBER OF SYMMETRY AOS:           71
 NUMBER OF CONTRACTIONS:           54   (   25A1  +   12B1  +   12B2  +    5A2  )
 NUMBER OF INNER CORE ORBITALS:     0   (    0A1  +    0B1  +    0B2  +    0A2  )
 NUMBER OF OUTER CORE ORBITALS:     1   (    1A1  +    0B1  +    0B2  +    0A2  )
 NUMBER OF VALENCE ORBITALS:        5   (    3A1  +    1B1  +    1B2  +    0A2  )


 NUCLEAR REPULSION ENERGY    5.19463398

 EXTRA SYMMETRY OF AOS IN SYMMETRY 1:   1 1 1 1 1 1 1 1 1 1   1 2 1 2 1 2 1 2 1 1   1 1 1 1 2
 EXTRA SYMMETRY OF AOS IN SYMMETRY 2:   1 1 1 1 1 1 1 1 2 1   1 1
 EXTRA SYMMETRY OF AOS IN SYMMETRY 3:   1 1 1 1 1 1 1 1 2 1   1 1

 Eigenvalues of metric

         1 0.973E-03 0.604E-02 0.111E-01 0.504E-01 0.104E+00 0.111E+00 0.192E+00 0.319E+00
         2 0.841E-01 0.113E+00 0.218E+00 0.478E+00 0.592E+00 0.738E+00 0.100E+01 0.108E+01
         3 0.841E-01 0.113E+00 0.218E+00 0.478E+00 0.592E+00 0.738E+00 0.100E+01 0.108E+01
         4 0.383E+00 0.733E+00 0.950E+00 0.115E+01 0.179E+01


 Contracted 2-electron integrals neglected if value below      1.0D-18
 AO integral compression algorithm  1   Integral accuracy      1.0D-18

     4.194 MB (compressed) written to integral file (100.0%)

     Node minimum: 0.524 MB, node maximum: 0.524 MB


 NUMBER OF SORTED TWO-ELECTRON INTEGRALS:      35587.     BUFFER LENGTH:  32768
 NUMBER OF SEGMENTS:   1  SEGMENT LENGTH:      35587      RECORD LENGTH: 524288

 Memory used in sort:       0.59 MW

 SORT1 READ      367004. AND WROTE       25738. INTEGRALS IN      1 RECORDS. CPU TIME:     0.02 SEC, REAL TIME:     0.01 SEC
 SORT2 READ      227235. AND WROTE      305254. INTEGRALS IN     16 RECORDS. CPU TIME:     0.00 SEC, REAL TIME:     0.01 SEC

 Node minimum:       35587.  Node maximum:       39403. integrals

 OPERATOR DM      FOR CENTER  0  COORDINATES:    0.000000    0.000000    0.000000


 **********************************************************************************************************************************
 DATASETS  * FILE   NREC   LENGTH (MB)   RECORD NAMES
              1      18       28.61       500      610      700      900      950      970     1000      129      960     1100   
                                          VAR    BASINP    GEOM    SYMINP    ZMAT    AOBASIS   BASIS     P2S    ABASIS      S 
                                         1400     1410     1200     1210     1080     1600     1650     1700   
                                           T        V       H0       H01     AOSYM     SMH    MOLCAS    OPER   

 PROGRAMS   *        TOTAL       INT
 CPU TIMES  *         0.42      0.29
 REAL TIME  *         1.33 SEC
 DISK USED  *        28.89 MB (local),      265.22 MB (total)
 GA USED    *         0.00 MB       (max)       0.00 MB       (current)
 **********************************************************************************************************************************


 Program * Restricted Hartree-Fock

 Orbital guess generated from atomic densities.

 Initial occupancy:   3   1   1   0

 NELEC=   10   SYM=1   MS2= 0   THRE=1.0D-12   THRD=1.0D-06   THRG=1.0D-06  HFMA2=F  DIIS_START=2   DIIS_MAX=10   DIIS_INCORE=F

 Level shifts:    0.00 (CLOSED)    0.00 (OPEN)    0.30 (GAP_MIN)

 ITER           ETOT              DE          GRAD        DDIFF     DIIS  NEXP   TIME(IT)  TIME(TOT)  DIAG
   1     -100.03967152    -100.03967152     0.00D+00     0.92D-01     0     0       0.00      0.01    start
   2     -100.05984463      -0.02017312     0.20D-01     0.10D-01     1     0       0.00      0.01    diag
   3     -100.06621928      -0.00637464     0.12D-01     0.30D-02     2     0       0.00      0.01    diag
   4     -100.06633815      -0.00011887     0.12D-02     0.54D-03     3     0       0.00      0.01    diag
   5     -100.06635443      -0.00001628     0.36D-03     0.22D-03     4     0       0.00      0.01    diag
   6     -100.06635568      -0.00000126     0.78D-04     0.58D-04     5     0       0.00      0.01    diag
   7     -100.06635572      -0.00000004     0.13D-04     0.12D-04     6     0       0.00      0.01    diag
   8     -100.06635572      -0.00000000     0.13D-05     0.90D-06     7     0       0.00      0.01    fixocc
   9     -100.06635572      -0.00000000     0.14D-06     0.10D-06     8     0       0.00      0.01    diag
  10     -100.06635572       0.00000000     0.12D-07     0.14D-07     9     0       0.00      0.01    diag/orth
  11     -100.06635572      -0.00000000     0.70D-09     0.61D-09     0     0       0.00      0.01    diag

 Final occupancy:   3   1   1   0

 !RHF STATE 1.1 Energy               -100.066355719992
  RHF One-electron energy            -150.589345286184
  RHF Two-electron energy              45.328355581982
  RHF Kinetic energy                  100.010424988892
  RHF Nuclear energy                    5.194633984211
  RHF Virial quotient                  -1.000559249009

 !RHF STATE 1.1 Dipole moment           0.00000000     0.00000000    -0.75687282
 Dipole moment /Debye                   0.00000000     0.00000000    -1.92377881

 Orbital energies:

           1.1          2.1          3.1          4.1          5.1
    -26.295838    -1.601121    -0.768409     0.119220     0.155607

           1.2          2.2          3.2
     -0.650474     0.158835     0.568867

           1.3          2.3          3.3
     -0.650474     0.158835     0.568867

           1.4          2.4
      0.608532     2.506932


 HOMO      1.3    -0.650474 =     -17.7003eV
 LUMO      4.1     0.119220 =       3.2441eV
 LUMO-HOMO         0.769694 =      20.9444eV

 Orbitals saved in record  2100.2


 **********************************************************************************************************************************
 DATASETS  * FILE   NREC   LENGTH (MB)   RECORD NAMES
              1      18       28.61       500      610      700      900      950      970     1000      129      960     1100   
                                          VAR    BASINP    GEOM    SYMINP    ZMAT    AOBASIS   BASIS     P2S    ABASIS      S 
                                         1400     1410     1200     1210     1080     1600     1650     1700   
                                           T        V       H0       H01     AOSYM     SMH    MOLCAS    OPER   

              2       4        0.38       700     1000      520     2100   
                                         GEOM     BASIS   MCVARS     RHF  

 PROGRAMS   *        TOTAL    HF-SCF       INT
 CPU TIMES  *         0.63      0.21      0.29
 REAL TIME  *         1.70 SEC
 DISK USED  *        29.10 MB (local),      266.94 MB (total)
 GA USED    *         0.00 MB       (max)       0.00 MB       (current)
 **********************************************************************************************************************************


 PROGRAM * HESSIAN

 *** Long output written to logfile /gpfs01/work/emmanous/6Frequencies/implementation/MOLPRO/G4-T'/EXAMPLE_HF/hf.HF.def2TZVPPDprime.log ***


 PROGRAM * MCKINLEY (Hessian of the energy)     Author: A. Bernhardsson, R. Lindh

 Orbitals from record         2100.2

 Number of closed-shell orbitals:  5 (  3  1  1  0 )
 Number of occupied orbitals:      5 (  3  1  1  0 )

 Number of electrons= 10     Singlet     Space symmetry=1      Wavefunction type: CLOSED          


 McKinley needed      0.12 seconds of CPU time

 Entering CPHF calculation

 CPHF needed  44 iterations for  6 perturbations.  Total CPU time:    0.01 sec


 HF-SCF hessian saved to record  5300.2

 PROGRAM * FREQUENCIES (Calculation of harmonic vibrational spectra for HF-SCF)


 Permanent Dipole Moment [debye]
   1-  3    0.000000    0.000000    0.000000

 Dipole Moment Norm    0.0000000 [debye]

 Dipole Moment Derivatives [debye/ang]
              1             2             3             4             5             6
    1    0.00000000    0.00000000    0.00000000    0.00000000    0.00000000    0.00000000
    2    0.00000000    0.00000000    0.00000000    0.00000000    0.00000000    0.00000000
    3    0.00000000    0.00000000    0.00000000    0.00000000    0.00000000    0.00000000

 Force Constants (Second Derivatives of the Energy) in [a.u.]
                             FX1         FY1         FZ1         HX2         HY2     
           FX1           0.0139920
           FY1           0.0000000   0.0139920
           FZ1           0.0000000   0.0000000   0.6288219
           HX2          -0.0139920   0.0000000   0.0000000   0.0139920
           HY2           0.0000000  -0.0139920   0.0000000   0.0000000   0.0139920
           HZ2           0.0000000   0.0000000  -0.6288219   0.0000000   0.0000000
                             HZ2     
           HZ2           0.6288219


 Atomic Masses
   1-  2   18.998400    1.007825

 Mass weighted Second Derivative Matrix
                             FX1         FY1         FZ1         HX2         HY2     
           FX1           0.0007365
           FY1           0.0000000   0.0007365
           FZ1           0.0000000   0.0000000   0.0330987
           HX2          -0.0031976   0.0000000   0.0000000   0.0138834
           HY2           0.0000000  -0.0031976   0.0000000   0.0000000   0.0138834
           HZ2           0.0000000   0.0000000  -0.1437066   0.0000000   0.0000000
                             HZ2     
           HZ2           0.6239396


 Mass Weighted 2nd Derivative Matrix Eigenvalues
   1-  6    0.000000    0.000000    0.000000    0.014620    0.014620    0.657038

 Mass Weighted 2nd Derivative Matrix Eigenvectors
              1             2             3             4             5             6
    1    0.00000814    0.97448675    0.00000000    0.00000000   -0.22444503    0.00000000
    2    0.97448675   -0.00000814   -0.00000116   -0.22444503    0.00000000    0.00000000
    3    0.00000116    0.00000000    0.97448675    0.00000000    0.00000000   -0.22444503
    4    0.00000187    0.22444503    0.00000000    0.00000000    0.97448675    0.00000000
    5    0.22444503   -0.00000187   -0.00000027    0.97448675    0.00000000    0.00000000
    6    0.00000027    0.00000000    0.22444503    0.00000000    0.00000000    0.97448675

   Low Vibration      Wavenumber
        Nr             [1/cm] 
        1                0.00
        2                0.00
        3                0.01

     Vibration        Wavenumber
        Nr             [1/cm] 
        1              621.55
        2              621.55
        3             4166.77

 FREQUENCIES * CALCULATION OF NORMAL MODES FOR HF-SCF


 Atomic Coordinates

  Nr  Atom  Charge       X              Y              Z

   1   F     9.00    0.000000000    0.000000000    0.174057698
   2   H     1.00    0.000000000    0.000000000   -1.558499403

 Normal Modes

                              1 B2        2 Err       3 Err
 Wavenumbers [cm-1]          621.55      621.55     4166.77
 Intensities [km/mol]          0.00        0.00        0.00
 Intensities [relative]        0.00        0.00        0.00
           FX1             -0.00000    -0.05149    -0.00000
           FY1             -0.05149     0.00000    -0.00000
           FZ1              0.00000     0.00000    -0.05149
           HX2              0.00000     0.97070    -0.00000
           HY2              0.97070    -0.00000    -0.00000
           HZ2              0.00000     0.00000     0.97070


 Normal Modes of low/zero frequencies

                                  1           2           3
 Wavenumbers [cm-1]            0.00        0.00        0.01
 Intensities [km/mol]          0.00        0.00        0.00
 Intensities [relative]        0.00        0.00        0.00
           FX1              0.00000     0.22357     0.00000
           FY1              0.22357    -0.00000    -0.00000
           FZ1              0.00000    -0.00000     0.22357
           HX2              0.00000     0.22357     0.00000
           HY2              0.22357    -0.00000    -0.00000
           HZ2              0.00000    -0.00000     0.22357


 Frequencies dumped to record   5400.2

 Zero point energy:  0.01232459 [H]     2704.94 [1/CM]       32.36 [KJ/MOL]
 Frequency information read from record  5400.2


 **********************************************************************************************************************************
 DATASETS  * FILE   NREC   LENGTH (MB)   RECORD NAMES
              1      18       28.61       500      610      700      900      950      970     1000      129      960     1100   
                                          VAR    BASINP    GEOM    SYMINP    ZMAT    AOBASIS   BASIS     P2S    ABASIS      S 
                                         1400     1410     1200     1210     1080     1600     1650     1700   
                                           T        V       H0       H01     AOSYM     SMH    MOLCAS    OPER   

              2       7        0.39       700     1000      520     2100     5300     5450     5400   
                                         GEOM     BASIS   MCVARS     RHF     HESS     NMOD     FREQ   

              4       5        0.05      4100     4000     4200     4300     4400   

 PROGRAMS   *        TOTAL      FREQ    HF-SCF       INT
 CPU TIMES  *         0.76      0.13      0.21      0.29
 REAL TIME  *         1.86 SEC
 DISK USED  *        29.10 MB (local),      266.94 MB (total)
 SF USED    *         0.05 MB
 GA USED    *         0.00 MB       (max)       0.00 MB       (current)
 **********************************************************************************************************************************

 HF/DEF2-TZVPPD,H=DEF2-TZVPP energy=   -100.066355719992

          HF-SCF
   -100.06635572
 **********************************************************************************************************************************
 Molpro calculation terminated
