
 Working directory              : /scratch/emmanous/hf.MP2.def2QZVPPDprime.com.12169/molpro.SVoWEafQpv/
 Global scratch directory       : /scratch/emmanous/hf.MP2.def2QZVPPDprime.com.12169/molpro.SVoWEafQpv/
 Wavefunction directory         : /home/emmanous/wfu/
 Main file repository           : /scratch/emmanous/hf.MP2.def2QZVPPDprime.com.12169/molpro.SVoWEafQpv/

 id        : wis

 Nodes     nprocs
 cff164       8
 GA implementation: MPI file
 GA implementation (serial work in mppx): MPI file

 Using DEFAULT tuning parameter for ncache   :   16384
 Using DEFAULT tuning parameter for mflopdgm :   10000
 Using DEFAULT tuning parameter for mflopdgv :    4000
 Using DEFAULT tuning parameter for mflopmxm :    5000
 Using DEFAULT tuning parameter for mflopmxv :    4000
 Using DEFAULT tuning parameter for mindgm   :       1
 Using DEFAULT tuning parameter for mindgc   :       4
 Using DEFAULT tuning parameter for mindgf   :    5000
 Using DEFAULT tuning parameter for mindgl   :       4
 Using DEFAULT tuning parameter for mindgr   :       1
 Using DEFAULT tuning parameter for mindgv   :      20
 Using DEFAULT tuning parameter for mincuda  :     500
 Using DEFAULT tuning parameter for mxmblk   :      64
 Using DEFAULT tuning parameter for mxmbln   :      64
 Using DEFAULT tuning parameter for nroll    :       2
 Using custom tuning parameter for ngpus     :       0
 Using customized tuning parameters: mindgm=1; mindgv=20; mindgc=4; mindgr=1; noblas=0; minvec=7

 Fortran compiler: integer size=8, double size=8, logical size=8
 default implementation of scratch files=sf  


 Variables initialized (1015), CPU time= 0.01 sec
 gthresh,energy=1d-12,gradient=1d-6,twoint=1d-18,prefac=1d-20
 noorient
 charge=0
 multiplicity=1
 geomtyp=xyz
 geom={
  F          0.0000000000        0.0000000000        0.0921073674
  H          0.0000000000        0.0000000000       -0.8247223674
 }
 MASS,ISO
 MASS,PRINT
 
 basis,def2-QZVPPD,h=def2-QZVPP
 hf
 mp2
 {freq,analytic,print=3;noproject}
 
 Commands initialized (834), CPU time= 0.01 sec, 672 directives.
 Default parameters read. Elapsed time= 0.07 sec

 Using DEFAULT tuning parameter for mpplat   :       3
 Using DEFAULT tuning parameter for mppspeed :    1600
 Checking input...
 Passed
1


                                         ***  PROGRAM SYSTEM MOLPRO  ***
                                       Copyright, TTI GmbH Stuttgart, 2015
                                    Version 2022.2 linked Thu May  5 23:39:45 2022


 **********************************************************************************************************************************
 LABEL *                                                                                 
  64 bit mpp version                                                                     DATE: 12-Aug-23          TIME: 11:17:06  
 **********************************************************************************************************************************

 SHA1:             518bf5c5e315925380b88506c70af759aa1d1d96
 **********************************************************************************************************************************

 Memory per process:      1500 MW
 Total memory per node:  12000 MW

 GA preallocation disabled
 GA check disabled

 Variable memory set to 1500.0 MW


 THRESHOLDS:

 ZERO    =  1.00D-12  ONEINT  =  1.00D-12  TWOINT  =  1.00D-18  PREFAC  =  1.00D-20  XXXXXX  =  1.00D-09  EORDER  =  1.00D-04
 ENERGY  =  1.00D-12  ETEST   =  0.00D+00  EDENS   =  0.00D+00  THRDEDEF=  1.00D-06  GRADIENT=  1.00D-06  STEP    =  1.00D-03
 ORBITAL =  1.00D-05  CIVEC   =  1.00D-05  COEFF   =  1.00D-04  PRINTCI =  5.00D-02  PUNCHCI =  9.90D+01  OPTGRAD =  3.00D-04
 OPTENERG=  1.00D-06  OPTSTEP =  3.00D-04  THRGRAD =  1.00D-10  COMPRESS=  1.00D-11  VARMIN  =  1.00D-07  VARMAX  =  1.00D-03
 THRDOUB =  0.00D+00  THRDIV  =  1.00D-05  THRRED  =  1.00D-07  THRPSP  =  1.00D+00  THRDC   =  1.00D-10  THRCS   =  1.00D-10
 THRNRM  =  1.00D-08  THREQ   =  0.00D+00  THRDE   =  1.00D+00  THRREF  =  1.00D-05  SPARFAC =  1.00D+00  THRDLP  =  1.00D-07
 THRDIA  =  1.00D-10  THRDLS  =  1.00D-07  THRGPS  =  0.00D+00  THRKEX  =  0.00D+00  THRDIS  =  2.00D-01  THRVAR  =  1.00D-10
 THRLOC  =  1.00D-06  THRGAP  =  1.00D-06  THRLOCT = -1.00D+00  THRGAPT = -1.00D+00  THRORB  =  1.00D-06  THRMLTP =  0.00D+00
 THRCPQCI=  1.00D-10  KEXTA   =  0.00D+00  THRCOARS=  0.00D+00  SYMTOL  =  1.00D-06  GRADTOL =  1.00D-06  THROVL  =  1.00D-08
 THRORTH =  1.00D-08  THRDLOVL= -1.00D+00  GRID    =  1.00D-06  GRIDMAX =  1.00D-03  DTMAX   =  0.00D+00  THROCCDE=  1.00D-01
 THROCCDE=  1.00D-01  THRPRINT=  2.50D-01

 SETTING CHARGE         =      0.0000000D+00                                  
 SETTING MULTIPLICITY   =         1.00000000                                  
 SETTING GEOMTYP        =    XYZ


 Using masses of most abundant isotopes

 **********************************************************************************************************************************


 Atomic masses

 Center       Mass
 F         18.99840
 H          1.00782
 SETTING BASIS          =    DEF2-QZVPPD,H=DEF2-QZVPP


 Recomputing integrals since basis changed


 Using spherical harmonics

 Library entry F      S def2-QZVPPD          selected for orbital group  1
 Library entry F      P def2-QZVPPD          selected for orbital group  1
 Library entry F      D def2-QZVPPD          selected for orbital group  1
 Library entry F      F def2-QZVPPD          selected for orbital group  1
 Library entry F      G def2-QZVPPD          selected for orbital group  1
 Library entry H      S def2-QZVPP           selected for orbital group  2
 Library entry H      P def2-QZVPP           selected for orbital group  2
 Library entry H      D def2-QZVPP           selected for orbital group  2
 Library entry H      F def2-QZVPP           selected for orbital group  2


 PROGRAM * SEWARD (Integral evaluation for generally contracted gaussian basis sets)     Author: Roland Lindh, 1990

 Geometry written to block  1 of record 700


 Point group  C2v 



 ATOMIC COORDINATES

 NR  ATOM    CHARGE       X              Y              Z

   1  F       9.00    0.000000000    0.000000000    0.174057698
   2  H       1.00    0.000000000    0.000000000   -1.558499403

 Bond lengths in Bohr (Angstrom)

 1-2  1.732557102
     ( 0.916829735)

 NUCLEAR CHARGE:                   10
 NUMBER OF PRIMITIVE AOS:         140
 NUMBER OF SYMMETRY AOS:          119
 NUMBER OF CONTRACTIONS:           96   (   41A1  +   22B1  +   22B2  +   11A2  )
 NUMBER OF INNER CORE ORBITALS:     0   (    0A1  +    0B1  +    0B2  +    0A2  )
 NUMBER OF OUTER CORE ORBITALS:     1   (    1A1  +    0B1  +    0B2  +    0A2  )
 NUMBER OF VALENCE ORBITALS:        5   (    3A1  +    1B1  +    1B2  +    0A2  )


 NUCLEAR REPULSION ENERGY    5.19463398

 EXTRA SYMMETRY OF AOS IN SYMMETRY 1:   1 1 1 1 1 1 1 1 1 1   1 1 1 1 2 1 2 1 2 1   2 1 2 1 2 1 3 2 1 1   1 1 1 1 1 1 2 1 2 1
                                        2
 EXTRA SYMMETRY OF AOS IN SYMMETRY 2:   1 1 1 1 1 1 1 1 1 1   2 1 2 1 2 1 1 1 1 1   1 2
 EXTRA SYMMETRY OF AOS IN SYMMETRY 3:   1 1 1 1 1 1 1 1 1 1   2 1 2 1 2 1 1 1 1 1   1 2
 EXTRA SYMMETRY OF AOS IN SYMMETRY 4:   1 1 1 1 1 1 1 2 1 1   1

 Eigenvalues of metric

         1 0.196E-03 0.113E-02 0.354E-02 0.520E-02 0.102E-01 0.124E-01 0.308E-01 0.423E-01
         2 0.136E-01 0.370E-01 0.498E-01 0.132E+00 0.201E+00 0.250E+00 0.343E+00 0.482E+00
         3 0.136E-01 0.370E-01 0.498E-01 0.132E+00 0.201E+00 0.250E+00 0.343E+00 0.482E+00
         4 0.158E+00 0.233E+00 0.403E+00 0.535E+00 0.708E+00 0.100E+01 0.110E+01 0.113E+01


 Contracted 2-electron integrals neglected if value below      1.0D-18
 AO integral compression algorithm  1   Integral accuracy      1.0D-18

     23.331 MB (compressed) written to integral file ( 89.2%)

     Node minimum: 2.359 MB, node maximum: 3.670 MB


 NUMBER OF SORTED TWO-ELECTRON INTEGRALS:     354817.     BUFFER LENGTH:  32768
 NUMBER OF SEGMENTS:   1  SEGMENT LENGTH:     354817      RECORD LENGTH: 524288

 Memory used in sort:       0.91 MW

 SORT1 READ     3365396. AND WROTE      265138. INTEGRALS IN      1 RECORDS. CPU TIME:     0.05 SEC, REAL TIME:     0.06 SEC
 SORT2 READ     2157232. AND WROTE     2862107. INTEGRALS IN     96 RECORDS. CPU TIME:     0.01 SEC, REAL TIME:     0.01 SEC

 Node minimum:      351757.  Node maximum:      365024. integrals

 OPERATOR DM      FOR CENTER  0  COORDINATES:    0.000000    0.000000    0.000000


 **********************************************************************************************************************************
 DATASETS  * FILE   NREC   LENGTH (MB)   RECORD NAMES
              1      18       28.69       500      610      700      900      950      970     1000      129      960     1100   
                                          VAR    BASINP    GEOM    SYMINP    ZMAT    AOBASIS   BASIS     P2S    ABASIS      S 
                                         1400     1410     1200     1210     1080     1600     1650     1700   
                                           T        V       H0       H01     AOSYM     SMH    MOLCAS    OPER   

 PROGRAMS   *        TOTAL       INT
 CPU TIMES  *         0.53      0.40
 REAL TIME  *         1.45 SEC
 DISK USED  *        28.99 MB (local),      281.08 MB (total)
 GA USED    *         0.00 MB       (max)       0.00 MB       (current)
 **********************************************************************************************************************************


 Program * Restricted Hartree-Fock

 Orbital guess generated from atomic densities.

 Initial occupancy:   3   1   1   0

 NELEC=   10   SYM=1   MS2= 0   THRE=1.0D-12   THRD=1.0D-06   THRG=1.0D-06  HFMA2=F  DIIS_START=2   DIIS_MAX=10   DIIS_INCORE=F

 Level shifts:    0.00 (CLOSED)    0.00 (OPEN)    0.30 (GAP_MIN)

 ITER           ETOT              DE          GRAD        DDIFF     DIIS  NEXP   TIME(IT)  TIME(TOT)  DIAG
   1     -100.04345442    -100.04345442     0.00D+00     0.45D-01     0     0       0.00      0.01    start
   2     -100.06378607      -0.02033165     0.15D-01     0.48D-02     1     0       0.01      0.02    diag
   3     -100.07026928      -0.00648321     0.94D-02     0.14D-02     2     0       0.00      0.02    diag
   4     -100.07038736      -0.00011808     0.88D-03     0.21D-03     3     0       0.00      0.02    diag
   5     -100.07040409      -0.00001672     0.27D-03     0.10D-03     4     0       0.00      0.02    diag
   6     -100.07040543      -0.00000134     0.61D-04     0.30D-04     5     0       0.00      0.02    diag
   7     -100.07040548      -0.00000005     0.10D-04     0.60D-05     6     0       0.01      0.03    diag
   8     -100.07040548      -0.00000000     0.11D-05     0.58D-06     7     0       0.00      0.03    fixocc
   9     -100.07040548      -0.00000000     0.12D-06     0.54D-07     8     0       0.00      0.03    diag
  10     -100.07040548       0.00000000     0.11D-07     0.74D-08     9     0       0.00      0.03    diag/orth
  11     -100.07040548       0.00000000     0.61D-09     0.75D-09     0     0       0.00      0.03    diag

 Final occupancy:   3   1   1   0

 !RHF STATE 1.1 Energy               -100.070405476250
  RHF One-electron energy            -150.600023544880
  RHF Two-electron energy              45.334984084419
  RHF Kinetic energy                  100.022319534705
  RHF Nuclear energy                    5.194633984211
  RHF Virial quotient                  -1.000480752114

 !RHF STATE 1.1 Dipole moment           0.00000000     0.00000000    -0.75621742
 Dipole moment /Debye                   0.00000000     0.00000000    -1.92211296

 Orbital energies:

           1.1          2.1          3.1          4.1          5.1
    -26.294870    -1.601084    -0.768277     0.092626     0.113140

           1.2          2.2          3.2
     -0.650398     0.118177     0.481689

           1.3          2.3          3.3
     -0.650398     0.118177     0.481689

           1.4          2.4
      0.521510     1.852185


 HOMO      1.3    -0.650398 =     -17.6982eV
 LUMO      4.1     0.092626 =       2.5205eV
 LUMO-HOMO         0.743024 =      20.2187eV

 Orbitals saved in record  2100.2


 **********************************************************************************************************************************
 DATASETS  * FILE   NREC   LENGTH (MB)   RECORD NAMES
              1      18       28.70       500      610      700      900      950      970     1000      129      960     1100   
                                          VAR    BASINP    GEOM    SYMINP    ZMAT    AOBASIS   BASIS     P2S    ABASIS      S 
                                         1400     1410     1200     1210     1080     1600     1650     1700   
                                           T        V       H0       H01     AOSYM     SMH    MOLCAS    OPER   

              2       4        0.42       700     1000      520     2100   
                                         GEOM     BASIS   MCVARS     RHF  

 PROGRAMS   *        TOTAL    HF-SCF       INT
 CPU TIMES  *         0.62      0.09      0.40
 REAL TIME  *         1.75 SEC
 DISK USED  *        29.36 MB (local),      284.08 MB (total)
 GA USED    *         0.00 MB       (max)       0.00 MB       (current)
 **********************************************************************************************************************************


 PROGRAM * MP2 (Closed-shell)     Authors: C. Hampel, H.-J. Werner, 1991, M. Deegan, P.J. Knowles, 1992


 Convergence thresholds:  THRVAR = 1.00D-16  THRDEN = 1.00D-12

 Number of core orbitals:           1 (   1   0   0   0 )
 Number of closed-shell orbitals:   4 (   2   1   1   0 )
 Number of external orbitals:      91 (  38  21  21  11 )

 Molecular orbitals read from record     2100.2  Type=RHF/CANONICAL  

 Number of N-1 electron functions:               4
 Number of N-2 electron functions:              10
 Number of singly external CSFs:               118
 Number of doubly external CSFs:             17473
 Total number of CSFs:                       17592

 Length of J-op  integral file:               0.00 MB
 Length of K-op  integral file:               0.19 MB

 Integral transformation finished. Total CPU:   0.00 sec, npass=  1  Memory used:   0.10 MW

 Memory needed for MP2:                      0.01 MW

 SCS-MP2 correlation energy:           -0.293212537902   (PS=  1.200000  PT=  0.333333)
 SCS-MP2 total energy:               -100.363618014152


  Reference energy                   -100.070405476250
  MP2 singlet pair energy              -0.187335016715
  MP2 triplet pair energy              -0.109945475106
  MP2 correlation energy               -0.297280491821

 !MP2 total energy                   -100.367685968071

 KEXT needed  1 integral passes. Memory used:   0.14 MW  CPU time:      0.00 sec

 CPHF start vector      0.2 not found

 Starting Coupled-perturbed Hartree-Fock, convergence threshold= 1.0D-06

 ITER   MIC  DIIS      VAR         VARC       CPU
   1     0     1    0.22D-01    0.76D-03     0.00
   2     5     2    0.53D-03    0.51D-04     0.01
   3     4     3    0.58D-05    0.66D-06     0.01
   4     2     4    0.31D-06    0.57D-07     0.01

 CPHF convergence reached in  4 macroiterations and   11 microiterations.   Accuracy: 3.1337D-07

 CPHF solution written to record  4100.2

 Dipole moments (unrelaxed):            0.00000000     0.00000000    -0.74061557
 Orbital relaxation contribution:      -0.00000000    -0.00000000     0.03156116
 !MP2 STATE 1.1 Dipole moment           0.00000000     0.00000000    -0.70905441
 Dipole moment /Debye                   0.00000000     0.00000000    -1.80223655

 CPU-time for density and lagrangian:                  0.00 sec
 CPU-time for coupled-perturbed hartree-fock:          0.01 sec

 MP2 gradient info saved on record         5200.1


 **********************************************************************************************************************************
 DATASETS  * FILE   NREC   LENGTH (MB)   RECORD NAMES
              1      20       29.26       500      610      700      900      950      970     1000      129      960     1100   
                                          VAR    BASINP    GEOM    SYMINP    ZMAT    AOBASIS   BASIS     P2S    ABASIS      S 
                                         1400     1410     1200     1210     1080     1600     1650     1700     1380     5200   
                                           T        V       H0       H01     AOSYM     SMH    MOLCAS    OPER     JKOP      MP2  

              2       5        0.54       700     1000      520     2100     4100   
                                         GEOM     BASIS   MCVARS     RHF     CPHF   

 PROGRAMS   *        TOTAL       MP2    HF-SCF       INT
 CPU TIMES  *         0.67      0.05      0.09      0.40
 REAL TIME  *         1.81 SEC
 DISK USED  *        29.86 MB (local),      288.09 MB (total)
 SF USED    *         1.29 MB
 GA USED    *         0.00 MB       (max)       0.00 MB       (current)
 **********************************************************************************************************************************


 PROGRAM * HESSIAN

 *** Long output written to logfile /gpfs01/work/emmanous/6Frequencies/implementation/MOLPRO/G4-T'/EXAMPLE_HF/hf.MP2.def2QZVPPDprime.log ***


 Computing numerical hessian using default procedure for command MP2

 Symmetry elements for unique displacements: X  Y  

 Using AUTO symmetry option

 Running default procedure: HF-SCF000  MP2


 Numerically approximating hessian using central gradient differences

 Task list generated. Total number of displacements:      8

 All   8 tasks completed.  CPU=      2.87 sec, Elapsed=      2.96 sec.

 MP2 hessian saved to record  5300.2

 PROGRAM * FREQUENCIES (Calculation of harmonic vibrational spectra for MP2)


 Permanent Dipole Moment [debye]
   1-  3    0.000000    0.000000   -1.802237

 Dipole Moment Norm    1.8022366 [debye]

 Dipole Moment Derivatives [debye/ang]
              1             2             3             4             5             6
    1   -1.96571239    0.00000000    0.00000000    1.96570723    0.00000000    0.00000000
    2    0.00000000   -1.96571239    0.00000000    0.00000000    1.96570723    0.00000000
    3    0.00000000    0.00000000   -1.65754328    0.00000000    0.00000000    1.65754328

 Force Constants (Second Derivatives of the Energy) in [a.u.]
                             FX1         FY1         FZ1         HX2         HY2     
           FX1          -0.0008919
           FY1           0.0000000  -0.0008919
           FZ1           0.0000000   0.0000000   0.6300369
           HX2           0.0008919   0.0000000   0.0000000  -0.0008919
           HY2           0.0000000   0.0008919   0.0000000   0.0000000  -0.0008919
           HZ2           0.0000000   0.0000000  -0.6300369   0.0000000   0.0000000
                             HZ2     
           HZ2           0.6300369


 Atomic Masses
   1-  2   18.998400    1.007825

 Mass weighted Second Derivative Matrix
                             FX1         FY1         FZ1         HX2         HY2     
           FX1          -0.0000469
           FY1           0.0000000  -0.0000469
           FZ1           0.0000000   0.0000000   0.0331626
           HX2           0.0002038   0.0000000   0.0000000  -0.0008849
           HY2           0.0000000   0.0002038   0.0000000   0.0000000  -0.0008849
           HZ2           0.0000000   0.0000000  -0.1439842   0.0000000   0.0000000
                             HZ2     
           HZ2           0.6251451


 Mass Weighted 2nd Derivative Matrix Eigenvalues
   1-  6   -0.000932   -0.000932    0.000000    0.000000    0.000000    0.658308

 Mass Weighted 2nd Derivative Matrix Eigenvectors
              1             2             3             4             5             6
    1   -0.22444710    0.00000000    0.97448627    0.00000000    0.00000000    0.00000000
    2    0.00000000   -0.22444710    0.00000000    0.97448570   -0.00106136    0.00000000
    3    0.00000000    0.00000000    0.00000000    0.00106136    0.97448617   -0.22444503
    4    0.97448627    0.00000000    0.22444710    0.00000000    0.00000000    0.00000000
    5    0.00000000    0.97448627    0.00000000    0.22444697   -0.00024446    0.00000000
    6    0.00000000    0.00000000    0.00000000    0.00024445    0.22444489    0.97448675

 Imaginary Vibration  Wavenumber
        Nr             [1/cm] 
        1              156.92
        2              156.92

   Low Vibration      Wavenumber
        Nr             [1/cm] 
        1                0.00
        2                0.00
        3                0.00

     Vibration        Wavenumber
        Nr             [1/cm] 
        1             4170.79

 FREQUENCIES * CALCULATION OF NORMAL MODES FOR MP2


 Atomic Coordinates

  Nr  Atom  Charge       X              Y              Z

   1   F     9.00    0.000000000    0.000000000    0.174057698
   2   H     1.00    0.000000000    0.000000000   -1.558499403

 Normal Modes

                              1 A1 
 Wavenumbers [cm-1]         4170.79
 Intensities [km/mol]        121.31
 Intensities [relative]       71.10
           FX1             -0.00000
           FY1             -0.00000
           FZ1             -0.05149
           HX2             -0.00000
           HY2             -0.00000
           HZ2              0.97070


 Normal Modes of imaginary frequencies

                                  1           2
 Wavenumbers [cm-1]          156.92      156.92
 Intensities [km/mol]        170.60      170.60
 Intensities [relative]      100.00      100.00
           FX1             -0.05149    -0.00000
           FY1             -0.00000    -0.05149
           FZ1             -0.00000    -0.00000
           HX2              0.97070    -0.00000
           HY2             -0.00000     0.97070
           HZ2             -0.00000    -0.00000


 Normal Modes of low/zero frequencies

                                  1           2           3
 Wavenumbers [cm-1]            0.00        0.00        0.00
 Intensities [km/mol]          0.00        0.00        0.00
 Intensities [relative]        0.00        0.00        0.00
           FX1              0.22357     0.00000    -0.00000
           FY1             -0.00000     0.22357    -0.00024
           FZ1             -0.00000     0.00024     0.22357
           HX2              0.22357    -0.00000    -0.00000
           HY2             -0.00000     0.22357    -0.00024
           HZ2             -0.00000     0.00024     0.22357


 Frequencies dumped to record   5400.2

 Zero point energy:  0.00950177 [H]     2085.40 [1/CM]       24.95 [KJ/MOL]
 Frequency information read from record  5400.2

 Recomputing wavefunction at initial geometry


 **********************************************************************************************************************************
 DATASETS  * FILE   NREC   LENGTH (MB)   RECORD NAMES
              1      20       29.26       500      610      700      900      950      970     1000      129      960     1100   
                                          VAR    BASINP    GEOM    SYMINP    ZMAT    AOBASIS   BASIS     P2S    ABASIS      S 
                                         1400     1410     1200     1210     1080     1600     1650     1700     1380     5200   
                                           T        V       H0       H01     AOSYM     SMH    MOLCAS    OPER     JKOP      MP2  

              2       8        0.59       700     1000      520     2100     4100     5300     5450     5400   
                                         GEOM     BASIS   MCVARS     RHF     CPHF     HESS     NMOD     FREQ   

 PROGRAMS   *        TOTAL      FREQ       MP2    HF-SCF       INT
 CPU TIMES  *         3.89      3.21      0.05      0.09      0.40
 REAL TIME  *         7.88 SEC
 DISK USED  *       128.11 MB (local),      880.06 MB (total)
 SF USED    *         1.32 MB
 GA USED    *         0.00 MB       (max)       0.00 MB       (current)
 **********************************************************************************************************************************

 MP2/DEF2-QZVPPD,H=DEF2-QZVPP energy=   -100.367685968361

             MP2          HF-SCF
   -100.36768597   -100.07040548
 **********************************************************************************************************************************
 Molpro calculation terminated
