
Host: cff164

Timers On : Sat Aug 12 07:49:18 2023
Timers Off: Sat Aug 12 07:49:19 2023

Wall Time:        1.17 seconds

                                                       Time (seconds)
Module                                       User      System        Wall        Calls

--------------------------------------------------------------------------------------

**************************************************************************************

Host: cff147

Timers On : Sat Aug 12 10:45:14 2023
Timers Off: Sat Aug 12 10:45:15 2023

Wall Time:        1.40 seconds

                                                       Time (seconds)
Module                                       User      System        Wall        Calls

--------------------------------------------------------------------------------------

**************************************************************************************

Host: cff164

Timers On : Sat Aug 12 10:54:38 2023
Timers Off: Sat Aug 12 10:54:39 2023

Wall Time:        0.78 seconds

                                                       Time (seconds)
Module                                       User      System        Wall        Calls

--------------------------------------------------------------------------------------

**************************************************************************************

Host: cff164

Timers On : Sat Aug 12 11:01:41 2023
Timers Off: Sat Aug 12 11:01:42 2023

Wall Time:        1.13 seconds

                                                       Time (seconds)
Module                                       User      System        Wall        Calls

--------------------------------------------------------------------------------------

**************************************************************************************

Host: cff164

Timers On : Sat Aug 12 11:14:48 2023
Timers Off: Sat Aug 12 11:14:49 2023

Wall Time:        1.13 seconds

                                                       Time (seconds)
Module                                       User      System        Wall        Calls

--------------------------------------------------------------------------------------

**************************************************************************************

Host: cff164

Timers On : Sat Aug 12 11:17:30 2023
Timers Off: Sat Aug 12 11:17:31 2023

Wall Time:        1.14 seconds

                                                       Time (seconds)
Module                                       User      System        Wall        Calls

--------------------------------------------------------------------------------------

**************************************************************************************
