
 Working directory              : /scratch/emmanous/h2o.HF.def2TZVPPDprime.com.7298/molpro.tYgsOB3joZ/
 Global scratch directory       : /scratch/emmanous/h2o.HF.def2TZVPPDprime.com.7298/molpro.tYgsOB3joZ/
 Wavefunction directory         : /home/emmanous/wfu/
 Main file repository           : /scratch/emmanous/h2o.HF.def2TZVPPDprime.com.7298/molpro.tYgsOB3joZ/

 id        : wis

 Nodes     nprocs
 cff155       8
 GA implementation: MPI file
 GA implementation (serial work in mppx): MPI file

 Using DEFAULT tuning parameter for ncache   :   16384
 Using DEFAULT tuning parameter for mflopdgm :   10000
 Using DEFAULT tuning parameter for mflopdgv :    4000
 Using DEFAULT tuning parameter for mflopmxm :    5000
 Using DEFAULT tuning parameter for mflopmxv :    4000
 Using DEFAULT tuning parameter for mindgm   :       1
 Using DEFAULT tuning parameter for mindgc   :       4
 Using DEFAULT tuning parameter for mindgf   :    5000
 Using DEFAULT tuning parameter for mindgl   :       4
 Using DEFAULT tuning parameter for mindgr   :       1
 Using DEFAULT tuning parameter for mindgv   :      20
 Using DEFAULT tuning parameter for mincuda  :     500
 Using DEFAULT tuning parameter for mxmblk   :      64
 Using DEFAULT tuning parameter for mxmbln   :      64
 Using DEFAULT tuning parameter for nroll    :       2
 Using custom tuning parameter for ngpus     :       0
 Using customized tuning parameters: mindgm=1; mindgv=20; mindgc=4; mindgr=1; noblas=0; minvec=7

 Fortran compiler: integer size=8, double size=8, logical size=8
 default implementation of scratch files=sf  


 Variables initialized (1015), CPU time= 0.00 sec
 gthresh,energy=1d-12,gradient=1d-6,twoint=1d-18,prefac=1d-20
 noorient
 charge=0
 multiplicity=1
 geomtyp=xyz
 geom={
  O          0.0000000000        0.0000000000        0.1172810075
  H          0.0000000000        0.7568536819       -0.4709065037
  H          0.0000000000       -0.7568536819       -0.4709065037
 }
 MASS,ISO
 MASS,PRINT
 
 basis,def2-TZVPPD,h=def2-TZVPP
 hf
 {freq,analytic,print=3;noproject}
 
 Commands initialized (834), CPU time= 0.01 sec, 672 directives.
 Default parameters read. Elapsed time= 0.07 sec

 Using DEFAULT tuning parameter for mpplat   :       3
 Using DEFAULT tuning parameter for mppspeed :    1600
 Checking input...
 Passed
1


                                         ***  PROGRAM SYSTEM MOLPRO  ***
                                       Copyright, TTI GmbH Stuttgart, 2015
                                    Version 2022.2 linked Thu May  5 23:39:45 2022


 **********************************************************************************************************************************
 LABEL *                                                                                 
  64 bit mpp version                                                                     DATE: 12-Aug-23          TIME: 11:28:50  
 **********************************************************************************************************************************

 SHA1:             518bf5c5e315925380b88506c70af759aa1d1d96
 **********************************************************************************************************************************

 Memory per process:      1500 MW
 Total memory per node:  12000 MW

 GA preallocation disabled
 GA check disabled

 Variable memory set to 1500.0 MW


 THRESHOLDS:

 ZERO    =  1.00D-12  ONEINT  =  1.00D-12  TWOINT  =  1.00D-18  PREFAC  =  1.00D-20  XXXXXX  =  1.00D-09  EORDER  =  1.00D-04
 ENERGY  =  1.00D-12  ETEST   =  0.00D+00  EDENS   =  0.00D+00  THRDEDEF=  1.00D-06  GRADIENT=  1.00D-06  STEP    =  1.00D-03
 ORBITAL =  1.00D-05  CIVEC   =  1.00D-05  COEFF   =  1.00D-04  PRINTCI =  5.00D-02  PUNCHCI =  9.90D+01  OPTGRAD =  3.00D-04
 OPTENERG=  1.00D-06  OPTSTEP =  3.00D-04  THRGRAD =  1.00D-10  COMPRESS=  1.00D-11  VARMIN  =  1.00D-07  VARMAX  =  1.00D-03
 THRDOUB =  0.00D+00  THRDIV  =  1.00D-05  THRRED  =  1.00D-07  THRPSP  =  1.00D+00  THRDC   =  1.00D-10  THRCS   =  1.00D-10
 THRNRM  =  1.00D-08  THREQ   =  0.00D+00  THRDE   =  1.00D+00  THRREF  =  1.00D-05  SPARFAC =  1.00D+00  THRDLP  =  1.00D-07
 THRDIA  =  1.00D-10  THRDLS  =  1.00D-07  THRGPS  =  0.00D+00  THRKEX  =  0.00D+00  THRDIS  =  2.00D-01  THRVAR  =  1.00D-10
 THRLOC  =  1.00D-06  THRGAP  =  1.00D-06  THRLOCT = -1.00D+00  THRGAPT = -1.00D+00  THRORB  =  1.00D-06  THRMLTP =  0.00D+00
 THRCPQCI=  1.00D-10  KEXTA   =  0.00D+00  THRCOARS=  0.00D+00  SYMTOL  =  1.00D-06  GRADTOL =  1.00D-06  THROVL  =  1.00D-08
 THRORTH =  1.00D-08  THRDLOVL= -1.00D+00  GRID    =  1.00D-06  GRIDMAX =  1.00D-03  DTMAX   =  0.00D+00  THROCCDE=  1.00D-01
 THROCCDE=  1.00D-01  THRPRINT=  2.50D-01

 SETTING CHARGE         =      0.0000000D+00                                  
 SETTING MULTIPLICITY   =         1.00000000                                  
 SETTING GEOMTYP        =    XYZ


 Using masses of most abundant isotopes

 **********************************************************************************************************************************


 Atomic masses

 Center       Mass
 O         15.99491
 H          1.00782
 H          1.00782
 SETTING BASIS          =    DEF2-TZVPPD,H=DEF2-TZVPP


 Recomputing integrals since basis changed


 Using spherical harmonics

 Library entry O      S def2-TZVPPD          selected for orbital group  1
 Library entry O      P def2-TZVPPD          selected for orbital group  1
 Library entry O      D def2-TZVPPD          selected for orbital group  1
 Library entry O      F def2-TZVPPD          selected for orbital group  1
 Library entry H      S def2-TZVPP           selected for orbital group  2
 Library entry H      P def2-TZVPP           selected for orbital group  2
 Library entry H      D def2-TZVPP           selected for orbital group  2


 PROGRAM * SEWARD (Integral evaluation for generally contracted gaussian basis sets)     Author: Roland Lindh, 1990

 Geometry written to block  1 of record 700


 Point group  C2v 



 ATOMIC COORDINATES

 NR  ATOM    CHARGE       X              Y              Z

   1  O       8.00    0.000000000    0.000000000    0.221628984
   2  H       1.00    0.000000000    1.430246175   -0.889884322
   3  H       1.00    0.000000000   -1.430246175   -0.889884322

 Bond lengths in Bohr (Angstrom)

 1-2  1.811371290  1-3  1.811371290
     ( 0.958536407)     ( 0.958536407)

 Bond angles

  2-1-3  104.29499459

 NUCLEAR CHARGE:                   10
 NUMBER OF PRIMITIVE AOS:          95
 NUMBER OF SYMMETRY AOS:           87
 NUMBER OF CONTRACTIONS:           68   (   28A1  +   13B1  +   19B2  +    8A2  )
 NUMBER OF INNER CORE ORBITALS:     0   (    0A1  +    0B1  +    0B2  +    0A2  )
 NUMBER OF OUTER CORE ORBITALS:     1   (    1A1  +    0B1  +    0B2  +    0A2  )
 NUMBER OF VALENCE ORBITALS:        6   (    3A1  +    1B1  +    2B2  +    0A2  )


 NUCLEAR REPULSION ENERGY    9.18267706

 Eigenvalues of metric

         1 0.872E-03 0.426E-02 0.101E-01 0.472E-01 0.663E-01 0.916E-01 0.121E+00 0.139E+00
         2 0.732E-01 0.930E-01 0.255E+00 0.442E+00 0.542E+00 0.651E+00 0.784E+00 0.104E+01
         3 0.155E-02 0.952E-02 0.431E-01 0.767E-01 0.137E+00 0.176E+00 0.279E+00 0.340E+00
         4 0.105E+00 0.196E+00 0.503E+00 0.722E+00 0.880E+00 0.126E+01 0.144E+01 0.257E+01


 Contracted 2-electron integrals neglected if value below      1.0D-18
 AO integral compression algorithm  1   Integral accuracy      1.0D-18

     8.913 MB (compressed) written to integral file (100.0%)

     Node minimum: 1.049 MB, node maximum: 1.311 MB


 NUMBER OF SORTED TWO-ELECTRON INTEGRALS:      89699.     BUFFER LENGTH:  32768
 NUMBER OF SEGMENTS:   1  SEGMENT LENGTH:      89699      RECORD LENGTH: 524288

 Memory used in sort:       0.65 MW

 SORT1 READ     1011314. AND WROTE       82643. INTEGRALS IN      1 RECORDS. CPU TIME:     0.01 SEC, REAL TIME:     0.01 SEC
 SORT2 READ      679929. AND WROTE      739926. INTEGRALS IN     32 RECORDS. CPU TIME:     0.01 SEC, REAL TIME:     0.01 SEC

 Node minimum:       89611.  Node maximum:       94745. integrals

 OPERATOR DM      FOR CENTER  0  COORDINATES:    0.000000    0.000000    0.000000


 **********************************************************************************************************************************
 DATASETS  * FILE   NREC   LENGTH (MB)   RECORD NAMES
              1      18       28.65       500      610      700      900      950      970     1000      129      960     1100   
                                          VAR    BASINP    GEOM    SYMINP    ZMAT    AOBASIS   BASIS     P2S    ABASIS      S 
                                         1400     1410     1200     1210     1080     1600     1650     1700   
                                           T        V       H0       H01     AOSYM     SMH    MOLCAS    OPER   

 PROGRAMS   *        TOTAL       INT
 CPU TIMES  *         0.42      0.29
 REAL TIME  *         1.38 SEC
 DISK USED  *        28.95 MB (local),      269.39 MB (total)
 GA USED    *         0.00 MB       (max)       0.00 MB       (current)
 **********************************************************************************************************************************


 Program * Restricted Hartree-Fock

 Orbital guess generated from atomic densities.

 Initial occupancy:   3   1   1   0

 NELEC=   10   SYM=1   MS2= 0   THRE=1.0D-12   THRD=1.0D-06   THRG=1.0D-06  HFMA2=F  DIIS_START=2   DIIS_MAX=10   DIIS_INCORE=F

 Level shifts:    0.00 (CLOSED)    0.00 (OPEN)    0.30 (GAP_MIN)

 ITER           ETOT              DE          GRAD        DDIFF     DIIS  NEXP   TIME(IT)  TIME(TOT)  DIAG
   1      -76.02569494     -76.02569494     0.00D+00     0.70D-01     0     0       0.00      0.01    start
   2      -76.05257857      -0.02688363     0.21D-01     0.10D-01     1     0       0.00      0.01    diag
   3      -76.06357159      -0.01099302     0.13D-01     0.34D-02     2     0       0.00      0.01    diag
   4      -76.06375380      -0.00018220     0.12D-02     0.54D-03     3     0       0.00      0.01    diag
   5      -76.06377125      -0.00001745     0.32D-03     0.19D-03     4     0       0.01      0.02    diag
   6      -76.06377221      -0.00000096     0.60D-04     0.45D-04     5     0       0.00      0.02    diag
   7      -76.06377225      -0.00000004     0.11D-04     0.11D-04     6     0       0.00      0.02    diag
   8      -76.06377225      -0.00000000     0.21D-05     0.18D-05     7     0       0.00      0.02    fixocc
   9      -76.06377225      -0.00000000     0.26D-06     0.21D-06     8     0       0.00      0.02    diag
  10      -76.06377225      -0.00000000     0.59D-07     0.47D-07     9     0       0.00      0.02    diag/orth
  11      -76.06377225      -0.00000000     0.11D-07     0.92D-08     0     0       0.00      0.02    diag

 Final occupancy:   3   1   1   0

 !RHF STATE 1.1 Energy                -76.063772254717
  RHF One-electron energy            -123.034320379925
  RHF Two-electron energy              37.787871066157
  RHF Kinetic energy                   75.978711118149
  RHF Nuclear energy                    9.182677059051
  RHF Virial quotient                  -1.001119539083

 !RHF STATE 1.1 Dipole moment           0.00000000     0.00000000    -0.78309856
 Dipole moment /Debye                   0.00000000     0.00000000    -1.99043800

 Orbital energies:

           1.1          2.1          3.1          4.1          5.1
    -20.565252    -1.352060    -0.584987     0.090966     0.146587

           1.2          2.2          3.2
     -0.510314     0.140752     0.463240

           1.3          2.3          3.3
     -0.716675     0.113010     0.257035

           1.4          2.4
      0.451275     1.134605


 HOMO      1.2    -0.510314 =     -13.8864eV
 LUMO      4.1     0.090966 =       2.4753eV
 LUMO-HOMO         0.601281 =      16.3617eV

 Orbitals saved in record  2100.2


 **********************************************************************************************************************************
 DATASETS  * FILE   NREC   LENGTH (MB)   RECORD NAMES
              1      18       28.65       500      610      700      900      950      970     1000      129      960     1100   
                                          VAR    BASINP    GEOM    SYMINP    ZMAT    AOBASIS   BASIS     P2S    ABASIS      S 
                                         1400     1410     1200     1210     1080     1600     1650     1700   
                                           T        V       H0       H01     AOSYM     SMH    MOLCAS    OPER   

              2       4        0.41       700     1000      520     2100   
                                         GEOM     BASIS   MCVARS     RHF  

 PROGRAMS   *        TOTAL    HF-SCF       INT
 CPU TIMES  *         0.62      0.20      0.29
 REAL TIME  *         1.75 SEC
 DISK USED  *        29.20 MB (local),      271.41 MB (total)
 GA USED    *         0.00 MB       (max)       0.00 MB       (current)
 **********************************************************************************************************************************


 PROGRAM * HESSIAN

 *** Long output written to logfile /gpfs01/work/emmanous/6Frequencies/implementation/MOLPRO/G4-T'/EXAMPLE_H2O/h2o.HF.def2TZVPPDprime.log ***


 PROGRAM * MCKINLEY (Hessian of the energy)     Author: A. Bernhardsson, R. Lindh

 Orbitals from record         2100.2

 Number of closed-shell orbitals:  5 (  3  1  1  0 )
 Number of occupied orbitals:      5 (  3  1  1  0 )

 Number of electrons= 10     Singlet     Space symmetry=1      Wavefunction type: CLOSED          


 McKinley needed      0.24 seconds of CPU time

 Entering CPHF calculation

 CPHF needed  68 iterations for  9 perturbations.  Total CPU time:    0.04 sec


 HF-SCF hessian saved to record  5300.2

 PROGRAM * FREQUENCIES (Calculation of harmonic vibrational spectra for HF-SCF)


 Permanent Dipole Moment [debye]
   1-  3    0.000000    0.000000    0.000000

 Dipole Moment Norm    0.0000000 [debye]

 Dipole Moment Derivatives [debye/ang]
              1             2             3             4             5             6             7             8
    1    0.00000000    0.00000000    0.00000000    0.00000000    0.00000000    0.00000000    0.00000000    0.00000000
    2    0.00000000    0.00000000    0.00000000    0.00000000    0.00000000    0.00000000    0.00000000    0.00000000
    3    0.00000000    0.00000000    0.00000000    0.00000000    0.00000000    0.00000000    0.00000000    0.00000000
              9
    1    0.00000000
    2    0.00000000
    3    0.00000000

 Force Constants (Second Derivatives of the Energy) in [a.u.]
                             OX1         OY1         OZ1         HX2         HY2     
           OX1           0.0247732
           OY1           0.0000000   0.7054061
           OZ1           0.0000000   0.0000000   0.4988865
           HX2          -0.0123866   0.0000000   0.0000000   0.0110389
           HY2           0.0000000  -0.3527031   0.2022349   0.0000000   0.3867622
           HZ2           0.0000000   0.2644763  -0.2494432   0.0000000  -0.2333556
           HX3          -0.0123866   0.0000000   0.0000000   0.0013477   0.0000000
           HY3           0.0000000  -0.3527031  -0.2022349   0.0000000  -0.0340592
           HZ3           0.0000000  -0.2644763  -0.2494432   0.0000000   0.0311207
                             HZ2         HX3         HY3         HZ3     
           HZ2           0.2323359
           HX3           0.0000000   0.0110389
           HY3          -0.0311207   0.0000000   0.3867622
           HZ3           0.0171074   0.0000000   0.2333556   0.2323359


 Atomic Masses
   1-  3   15.994910    1.007825    1.007825

 Mass weighted Second Derivative Matrix
                             OX1         OY1         OZ1         HX2         HY2     
           OX1           0.0015488
           OY1           0.0000000   0.0441019
           OZ1           0.0000000   0.0000000   0.0311903
           HX2          -0.0030851   0.0000000   0.0000000   0.0109532
           HY2           0.0000000  -0.0878468   0.0503701   0.0000000   0.3837593
           HZ2           0.0000000   0.0658724  -0.0621281   0.0000000  -0.2315438
           HX3          -0.0030851   0.0000000   0.0000000   0.0013373   0.0000000
           HY3           0.0000000  -0.0878468  -0.0503701   0.0000000  -0.0337947
           HZ3           0.0000000  -0.0658724  -0.0621281   0.0000000   0.0308791
                             HZ2         HX3         HY3         HZ3     
           HZ2           0.2305319
           HX3           0.0000000   0.0109532
           HY3          -0.0308791   0.0000000   0.3837593
           HZ3           0.0169746   0.0000000   0.2315438   0.2305319


 Mass Weighted 2nd Derivative Matrix Eigenvalues
   1-  9    0.000000    0.000000    0.000000    0.009616    0.011083    0.013839    0.124159    0.572092    0.596540

 Mass Weighted 2nd Derivative Matrix Eigenvectors
              1             2             3             4             5             6             7             8
    1    0.00000000    0.00000000    0.94238281    0.00000000    0.00000000   -0.33453646    0.00000000    0.00000000
    2    0.00000000    0.94238270    0.00000000    0.00000000   -0.19673463    0.00000000    0.00000000    0.00000000
    3    0.94238267    0.00000000    0.00000000    0.00000000    0.00000000    0.00000000   -0.27074714    0.19649652
    4    0.00000000    0.00000000    0.23655300    0.70710678    0.00000000    0.66636527    0.00000000    0.00000000
    5    0.00000000    0.23655322    0.00000000    0.00000000    0.39187667    0.00000000    0.41533251    0.57227520
    6    0.23655327   -0.00000006    0.00000000    0.00000000    0.57190945    0.00000000    0.53930224   -0.39140216
    7    0.00000000    0.00000000    0.23655300   -0.70710678    0.00000000    0.66636527    0.00000000    0.00000000
    8    0.00000000    0.23655322    0.00000000    0.00000000    0.39187667    0.00000000   -0.41533251   -0.57227520
    9    0.23655327    0.00000006    0.00000000    0.00000000   -0.57190945    0.00000000    0.53930224   -0.39140216
              9
    1    0.00000000
    2   -0.27057410
    3    0.00000000
    4    0.00000000
    5    0.53895756
    6   -0.41583600
    7    0.00000000
    8    0.53895756
    9    0.41583600

 Imaginary Vibration  Wavenumber
        Nr             [1/cm] 
        1                0.01

   Low Vibration      Wavenumber
        Nr             [1/cm] 
        1                0.15
        2                0.21

     Vibration        Wavenumber
        Nr             [1/cm] 
        1              504.08
        2              541.18
        3              604.73
        4             1811.31
        5             3888.10
        6             3970.31

 FREQUENCIES * CALCULATION OF NORMAL MODES FOR HF-SCF


 Atomic Coordinates

  Nr  Atom  Charge       X              Y              Z

   1   O     8.00    0.000000000    0.000000000    0.221628984
   2   H     1.00    0.000000000    1.430246175   -0.889884322
   3   H     1.00    0.000000000   -1.430246175   -0.889884322

 Normal Modes

                              1 A2        2 B2        3 B1        4 Err       5 Err
 Wavenumbers [cm-1]          504.08      541.18      604.73     1811.31     3888.10
 Intensities [km/mol]          0.00        0.00        0.00        0.00        0.00
 Intensities [relative]        0.00        0.00        0.00        0.00        0.00
           OX1             -0.00000    -0.00000    -0.08365     0.00000     0.00000
           OY1             -0.00000    -0.04919     0.00000    -0.00000    -0.00000
           OZ1              0.00000     0.00000    -0.00000    -0.06770     0.04913
           HX2              0.70436    -0.00000     0.66377    -0.00000     0.00000
           HY2              0.00000     0.39035    -0.00000     0.41372     0.57005
           HZ2              0.00000     0.56968    -0.00000     0.53720    -0.38988
           HX3             -0.70436     0.00000     0.66377     0.00000    -0.00000
           HY3              0.00000     0.39035    -0.00000    -0.41372    -0.57005
           HZ3             -0.00000    -0.56968     0.00000     0.53720    -0.38988

                              6 Err
 Wavenumbers [cm-1]         3970.31
 Intensities [km/mol]          0.00
 Intensities [relative]        0.00
           OX1              0.00000
           OY1             -0.06765
           OZ1             -0.00000
           HX2             -0.00000
           HY2              0.53686
           HZ2             -0.41422
           HX3              0.00000
           HY3              0.53686
           HZ3              0.41422


 Normal Modes of imaginary frequencies

                                  1
 Wavenumbers [cm-1]            0.01
 Intensities [km/mol]          0.00
 Intensities [relative]        0.00
           OX1              0.00000
           OY1             -0.00000
           OZ1              0.23563
           HX2              0.00000
           HY2             -0.00000
           HZ2              0.23563
           HX3             -0.00000
           HY3             -0.00000
           HZ3              0.23563


 Normal Modes of low/zero frequencies

                                  1           2
 Wavenumbers [cm-1]            0.15        0.21
 Intensities [km/mol]          0.00        0.00
 Intensities [relative]        0.00        0.00
           OX1             -0.00000     0.23563
           OY1              0.23563     0.00000
           OZ1              0.00000     0.00000
           HX2             -0.00000     0.23563
           HY2              0.23563     0.00000
           HZ2             -0.00000    -0.00000
           HX3             -0.00000     0.23563
           HY3              0.23563     0.00000
           HZ3              0.00000     0.00000


 Frequencies dumped to record   5400.2

 Zero point energy:  0.02578819 [H]     5659.85 [1/CM]       67.71 [KJ/MOL]
 Frequency information read from record  5400.2


 **********************************************************************************************************************************
 DATASETS  * FILE   NREC   LENGTH (MB)   RECORD NAMES
              1      18       28.65       500      610      700      900      950      970     1000      129      960     1100   
                                          VAR    BASINP    GEOM    SYMINP    ZMAT    AOBASIS   BASIS     P2S    ABASIS      S 
                                         1400     1410     1200     1210     1080     1600     1650     1700   
                                           T        V       H0       H01     AOSYM     SMH    MOLCAS    OPER   

              2       7        0.42       700     1000      520     2100     5300     5450     5400   
                                         GEOM     BASIS   MCVARS     RHF     HESS     NMOD     FREQ   

              4       5        0.13      4100     4000     4200     4300     4400   

 PROGRAMS   *        TOTAL      FREQ    HF-SCF       INT
 CPU TIMES  *         0.91      0.29      0.20      0.29
 REAL TIME  *         2.07 SEC
 DISK USED  *        29.20 MB (local),      271.41 MB (total)
 SF USED    *         0.13 MB
 GA USED    *         0.00 MB       (max)       0.00 MB       (current)
 **********************************************************************************************************************************

 HF/DEF2-TZVPPD,H=DEF2-TZVPP energy=    -76.063772254717

          HF-SCF
    -76.06377225
 **********************************************************************************************************************************
 Molpro calculation terminated
