
 Working directory              : /scratch/emmanous/h2o.CCSDt.def2TZVP.com.8053/molpro.WOV15yuCIB/
 Global scratch directory       : /scratch/emmanous/h2o.CCSDt.def2TZVP.com.8053/molpro.WOV15yuCIB/
 Wavefunction directory         : /home/emmanous/wfu/
 Main file repository           : /scratch/emmanous/h2o.CCSDt.def2TZVP.com.8053/molpro.WOV15yuCIB/

 id        : wis

 Nodes     nprocs
 cff155       8
 GA implementation: MPI file
 GA implementation (serial work in mppx): MPI file

 Using DEFAULT tuning parameter for ncache   :   16384
 Using DEFAULT tuning parameter for mflopdgm :   10000
 Using DEFAULT tuning parameter for mflopdgv :    4000
 Using DEFAULT tuning parameter for mflopmxm :    5000
 Using DEFAULT tuning parameter for mflopmxv :    4000
 Using DEFAULT tuning parameter for mindgm   :       1
 Using DEFAULT tuning parameter for mindgc   :       4
 Using DEFAULT tuning parameter for mindgf   :    5000
 Using DEFAULT tuning parameter for mindgl   :       4
 Using DEFAULT tuning parameter for mindgr   :       1
 Using DEFAULT tuning parameter for mindgv   :      20
 Using DEFAULT tuning parameter for mincuda  :     500
 Using DEFAULT tuning parameter for mxmblk   :      64
 Using DEFAULT tuning parameter for mxmbln   :      64
 Using DEFAULT tuning parameter for nroll    :       2
 Using custom tuning parameter for ngpus     :       0
 Using customized tuning parameters: mindgm=1; mindgv=20; mindgc=4; mindgr=1; noblas=0; minvec=7

 Fortran compiler: integer size=8, double size=8, logical size=8
 default implementation of scratch files=sf  


 Variables initialized (1015), CPU time= 0.01 sec
 gthresh,energy=1d-12,gradient=1d-6,twoint=1d-18,prefac=1d-20
 noorient
 charge=0
 multiplicity=1
 geomtyp=xyz
 geom={
  O          0.0000000000        0.0000000000        0.1172810075
  H          0.0000000000        0.7568536819       -0.4709065037
  H          0.0000000000       -0.7568536819       -0.4709065037
 }
 MASS,ISO
 MASS,PRINT
 
 basis,def2-TZVP
 hf
 ccsd(t)
 {freq,analytical,print=3;noproject}
 Commands initialized (834), CPU time= 0.00 sec, 672 directives.
 Default parameters read. Elapsed time= 0.07 sec

 Using DEFAULT tuning parameter for mpplat   :       3
 Using DEFAULT tuning parameter for mppspeed :    1600
 Checking input...
 Passed
1


                                         ***  PROGRAM SYSTEM MOLPRO  ***
                                       Copyright, TTI GmbH Stuttgart, 2015
                                    Version 2022.2 linked Thu May  5 23:39:45 2022


 **********************************************************************************************************************************
 LABEL *                                                                                 
  64 bit mpp version                                                                     DATE: 12-Aug-23          TIME: 11:29:38  
 **********************************************************************************************************************************

 SHA1:             518bf5c5e315925380b88506c70af759aa1d1d96
 **********************************************************************************************************************************

 Memory per process:      1500 MW
 Total memory per node:  12000 MW

 GA preallocation disabled
 GA check disabled

 Variable memory set to 1500.0 MW


 THRESHOLDS:

 ZERO    =  1.00D-12  ONEINT  =  1.00D-12  TWOINT  =  1.00D-18  PREFAC  =  1.00D-20  XXXXXX  =  1.00D-09  EORDER  =  1.00D-04
 ENERGY  =  1.00D-12  ETEST   =  0.00D+00  EDENS   =  0.00D+00  THRDEDEF=  1.00D-06  GRADIENT=  1.00D-06  STEP    =  1.00D-03
 ORBITAL =  1.00D-05  CIVEC   =  1.00D-05  COEFF   =  1.00D-04  PRINTCI =  5.00D-02  PUNCHCI =  9.90D+01  OPTGRAD =  3.00D-04
 OPTENERG=  1.00D-06  OPTSTEP =  3.00D-04  THRGRAD =  1.00D-10  COMPRESS=  1.00D-11  VARMIN  =  1.00D-07  VARMAX  =  1.00D-03
 THRDOUB =  0.00D+00  THRDIV  =  1.00D-05  THRRED  =  1.00D-07  THRPSP  =  1.00D+00  THRDC   =  1.00D-10  THRCS   =  1.00D-10
 THRNRM  =  1.00D-08  THREQ   =  0.00D+00  THRDE   =  1.00D+00  THRREF  =  1.00D-05  SPARFAC =  1.00D+00  THRDLP  =  1.00D-07
 THRDIA  =  1.00D-10  THRDLS  =  1.00D-07  THRGPS  =  0.00D+00  THRKEX  =  0.00D+00  THRDIS  =  2.00D-01  THRVAR  =  1.00D-10
 THRLOC  =  1.00D-06  THRGAP  =  1.00D-06  THRLOCT = -1.00D+00  THRGAPT = -1.00D+00  THRORB  =  1.00D-06  THRMLTP =  0.00D+00
 THRCPQCI=  1.00D-10  KEXTA   =  0.00D+00  THRCOARS=  0.00D+00  SYMTOL  =  1.00D-06  GRADTOL =  1.00D-06  THROVL  =  1.00D-08
 THRORTH =  1.00D-08  THRDLOVL= -1.00D+00  GRID    =  1.00D-06  GRIDMAX =  1.00D-03  DTMAX   =  0.00D+00  THROCCDE=  1.00D-01
 THROCCDE=  1.00D-01  THRPRINT=  2.50D-01

 SETTING CHARGE         =      0.0000000D+00                                  
 SETTING MULTIPLICITY   =         1.00000000                                  
 SETTING GEOMTYP        =    XYZ


 Using masses of most abundant isotopes

 **********************************************************************************************************************************


 Atomic masses

 Center       Mass
 O         15.99491
 H          1.00782
 H          1.00782
 SETTING BASIS          =    DEF2-TZVP


 Recomputing integrals since basis changed


 Using spherical harmonics

 Library entry O      S def2-TZVP            selected for orbital group  1
 Library entry O      P def2-TZVP            selected for orbital group  1
 Library entry O      D def2-TZVP            selected for orbital group  1
 Library entry O      F def2-TZVP            selected for orbital group  1
 Library entry H      S def2-TZVP            selected for orbital group  2
 Library entry H      P def2-TZVP            selected for orbital group  2


 PROGRAM * SEWARD (Integral evaluation for generally contracted gaussian basis sets)     Author: Roland Lindh, 1990

 Geometry written to block  1 of record 700


 Point group  C2v 



 ATOMIC COORDINATES

 NR  ATOM    CHARGE       X              Y              Z

   1  O       8.00    0.000000000    0.000000000    0.221628984
   2  H       1.00    0.000000000    1.430246175   -0.889884322
   3  H       1.00    0.000000000   -1.430246175   -0.889884322

 Bond lengths in Bohr (Angstrom)

 1-2  1.811371290  1-3  1.811371290
     ( 0.958536407)     ( 0.958536407)

 Bond angles

  2-1-3  104.29499459

 NUCLEAR CHARGE:                   10
 NUMBER OF PRIMITIVE AOS:          67
 NUMBER OF SYMMETRY AOS:           62
 NUMBER OF CONTRACTIONS:           43   (   19A1  +    8B1  +   12B2  +    4A2  )
 NUMBER OF INNER CORE ORBITALS:     0   (    0A1  +    0B1  +    0B2  +    0A2  )
 NUMBER OF OUTER CORE ORBITALS:     1   (    1A1  +    0B1  +    0B2  +    0A2  )
 NUMBER OF VALENCE ORBITALS:        6   (    3A1  +    1B1  +    2B2  +    0A2  )


 NUCLEAR REPULSION ENERGY    9.18267706

 Eigenvalues of metric

         1 0.834E-02 0.139E-01 0.105E+00 0.109E+00 0.190E+00 0.225E+00 0.366E+00 0.440E+00
         2 0.178E+00 0.298E+00 0.610E+00 0.828E+00 0.100E+01 0.108E+01 0.162E+01 0.242E+01
         3 0.139E-01 0.550E-01 0.931E-01 0.274E+00 0.446E+00 0.535E+00 0.699E+00 0.103E+01
         4 0.282E+00 0.713E+00 0.112E+01 0.185E+01


 Contracted 2-electron integrals neglected if value below      1.0D-18
 AO integral compression algorithm  1   Integral accuracy      1.0D-18

     2.097 MB (compressed) written to integral file (100.0%)

     Node minimum: 0.262 MB, node maximum: 0.262 MB


 NUMBER OF SORTED TWO-ELECTRON INTEGRALS:      14686.     BUFFER LENGTH:  32768
 NUMBER OF SEGMENTS:   1  SEGMENT LENGTH:      14686      RECORD LENGTH: 524288

 Memory used in sort:       0.57 MW

 SORT1 READ      156291. AND WROTE       12392. INTEGRALS IN      1 RECORDS. CPU TIME:     0.01 SEC, REAL TIME:     0.00 SEC
 SORT2 READ      106507. AND WROTE      126359. INTEGRALS IN      8 RECORDS. CPU TIME:     0.00 SEC, REAL TIME:     0.01 SEC

 Node minimum:       14649.  Node maximum:       16928. integrals

 OPERATOR DM      FOR CENTER  0  COORDINATES:    0.000000    0.000000    0.000000


 **********************************************************************************************************************************
 DATASETS  * FILE   NREC   LENGTH (MB)   RECORD NAMES
              1      18       28.61       500      610      700      900      950      970     1000      129      960     1100   
                                          VAR    BASINP    GEOM    SYMINP    ZMAT    AOBASIS   BASIS     P2S    ABASIS      S 
                                         1400     1410     1200     1210     1080     1600     1650     1700   
                                           T        V       H0       H01     AOSYM     SMH    MOLCAS    OPER   

 PROGRAMS   *        TOTAL       INT
 CPU TIMES  *         0.39      0.27
 REAL TIME  *         1.34 SEC
 DISK USED  *        28.90 MB (local),      264.29 MB (total)
 GA USED    *         0.00 MB       (max)       0.00 MB       (current)
 **********************************************************************************************************************************


 Program * Restricted Hartree-Fock

 Orbital guess generated from atomic densities.

 Initial occupancy:   3   1   1   0

 NELEC=   10   SYM=1   MS2= 0   THRE=1.0D-12   THRD=1.0D-06   THRG=1.0D-06  HFMA2=F  DIIS_START=2   DIIS_MAX=10   DIIS_INCORE=F

 Level shifts:    0.00 (CLOSED)    0.00 (OPEN)    0.30 (GAP_MIN)

 ITER           ETOT              DE          GRAD        DDIFF     DIIS  NEXP   TIME(IT)  TIME(TOT)  DIAG
   1      -76.02040450     -76.02040450     0.00D+00     0.11D+00     0     0       0.00      0.01    start
   2      -76.04836469      -0.02796019     0.27D-01     0.15D-01     1     0       0.00      0.01    diag
   3      -76.05872097      -0.01035629     0.16D-01     0.52D-02     2     0       0.00      0.01    diag
   4      -76.05892198      -0.00020100     0.16D-02     0.90D-03     3     0       0.00      0.01    diag
   5      -76.05894079      -0.00001882     0.43D-03     0.36D-03     4     0       0.00      0.01    diag
   6      -76.05894160      -0.00000081     0.73D-04     0.86D-04     5     0       0.00      0.01    diag
   7      -76.05894164      -0.00000004     0.14D-04     0.19D-04     6     0       0.00      0.01    diag
   8      -76.05894164      -0.00000000     0.20D-05     0.23D-05     7     0       0.00      0.01    fixocc
   9      -76.05894164      -0.00000000     0.22D-06     0.31D-06     8     0       0.00      0.01    diag
  10      -76.05894164      -0.00000000     0.54D-07     0.55D-07     9     0       0.00      0.01    diag/orth
  11      -76.05894164      -0.00000000     0.86D-08     0.11D-07     0     0       0.00      0.01    diag

 Final occupancy:   3   1   1   0

 !RHF STATE 1.1 Energy                -76.058941641209
  RHF One-electron energy            -123.058339238289
  RHF Two-electron energy              37.816720538029
  RHF Kinetic energy                   75.999149313622
  RHF Nuclear energy                    9.182677059051
  RHF Virial quotient                  -1.000786749959

 !RHF STATE 1.1 Dipole moment           0.00000000     0.00000000    -0.85084387
 Dipole moment /Debye                   0.00000000     0.00000000    -2.16262942

 Orbital energies:

           1.1          2.1          3.1          4.1          5.1
    -20.560045    -1.349254    -0.581477     0.127501     0.566108

           1.2          2.2          3.2
     -0.508015     0.597259     1.550656

           1.3          2.3          3.3
     -0.713658     0.197395     0.523115

           1.4          2.4
      1.441481     2.393205


 HOMO      1.2    -0.508015 =     -13.8238eV
 LUMO      4.1     0.127501 =       3.4695eV
 LUMO-HOMO         0.635515 =      17.2932eV

 Orbitals saved in record  2100.2


 **********************************************************************************************************************************
 DATASETS  * FILE   NREC   LENGTH (MB)   RECORD NAMES
              1      18       28.61       500      610      700      900      950      970     1000      129      960     1100   
                                          VAR    BASINP    GEOM    SYMINP    ZMAT    AOBASIS   BASIS     P2S    ABASIS      S 
                                         1400     1410     1200     1210     1080     1600     1650     1700   
                                           T        V       H0       H01     AOSYM     SMH    MOLCAS    OPER   

              2       4        0.39       700     1000      520     2100   
                                         GEOM     BASIS   MCVARS     RHF  

 PROGRAMS   *        TOTAL    HF-SCF       INT
 CPU TIMES  *         0.41      0.01      0.27
 REAL TIME  *         1.69 SEC
 DISK USED  *        29.09 MB (local),      265.77 MB (total)
 GA USED    *         0.00 MB       (max)       0.00 MB       (current)
 **********************************************************************************************************************************


 PROGRAM * CCSD (Closed-shell coupled cluster)     Authors: C. Hampel, H.-J. Werner, 1991, M. Deegan, P.J. Knowles, 1992


 Convergence thresholds:  THRVAR = 1.00D-16  THRDEN = 1.00D-12

 CCSD(T)     terms to be evaluated (factor= 1.000)


 Using ITF CCSD(T) gradient implementation

 Number of core orbitals:           1 (   1   0   0   0 )
 Number of closed-shell orbitals:   4 (   2   1   1   0 )
 Number of external orbitals:      38 (  16   7  11   4 )

 Molecular orbitals read from record     2100.2  Type=RHF/CANONICAL  

 Integral transformation finished. Total CPU:   0.00 sec, npass=  1  Memory used:   0.09 MW
 Time for re-packing tensors:             0.00 sec
  Reference energy                    -76.058941641209

  MP2 correlation energy               -0.254083650071
  MP2 total energy                    -76.313025291280

 ITER.      SQ.NORM     CORR.ENERGY   TOTAL ENERGY   ENERGY CHANGE        DEN1      VAR(S)    VAR(P)  DIIS     TIME
   1      1.06015762    -0.26019219   -76.31913383    -0.00610854    -0.00116305  5.43e-04  8.28e-04  1  1     0.01
   2      1.06324887    -0.26058710   -76.31952874    -0.00039491    -0.00429436  2.51e-05  9.65e-05  2  2     0.02
   3      1.06415138    -0.26070081   -76.31964246    -0.00011372    -0.00063898  1.96e-06  1.45e-05  3  3     0.03
   4      1.06461001    -0.26071090   -76.31965254    -0.00001008    -0.00040741  5.67e-08  1.33e-06  4  4     0.03
   5      1.06473921    -0.26070491   -76.31964655     0.00000598    -0.00009378  2.60e-09  9.23e-08  5  5     0.04
   6      1.06476885    -0.26070339   -76.31964503     0.00000152    -0.00002019  5.57e-11  2.60e-09  6  0     0.05
   7      1.06477114    -0.26070305   -76.31964469     0.00000034    -0.00000169  2.09e-11  1.11e-10  6  1     0.05
   8      1.06477091    -0.26070303   -76.31964467     0.00000002     0.00000005  7.11e-14  6.49e-12  6  2     0.06
   9      1.06477087    -0.26070303   -76.31964467    -0.00000000     0.00000001  1.42e-14  4.26e-13  6  3     0.07
  10      1.06477087    -0.26070303   -76.31964467    -0.00000000    -0.00000000  3.11e-16  1.43e-14  6  4     0.08
  11      1.06477087    -0.26070303   -76.31964467    -0.00000000     0.00000000  4.31e-17  7.23e-16  6  5     0.08
  12      1.06477087    -0.26070303   -76.31964467    -0.00000000     0.00000000  1.10e-18  4.17e-17  6  0     0.09
  13      1.06477087    -0.26070303   -76.31964467     0.00000000     0.00000000  8.52e-20  1.20e-18           0.10

 Norm of t1 vector:      0.02854145     S-energy:     -0.00000000   T1 diagnostic:  0.00713536

 Time per iteration:                      0.01 sec

 RESULTS
 =======

  Reference energy                    -76.058941641209
  CCSD correlation energy              -0.260703031492
  CCSD total energy                   -76.319644672701

  Triples (T) contribution             -0.006943429296
  Total correlation energy             -0.267646460788
  CCSD[T] total energy                -76.326808463619
 !CCSD(T) total energy                -76.326588101997

 Starting CP-CCSD(T) iterations.   Author: W. Gyorffy (2015)

 ITER.      NRM1           NRM2      VAR(S)+VAR(P)   DIIS    TIME
   1     0.00038346     0.23186740     1.78e-03      1  1    0.01
   2     0.00042288     0.23005015     2.24e-05      2  2    0.02
   3     0.00042266     0.23029593     1.10e-06      3  3    0.02
   4     0.00042740     0.23026663     1.70e-07      4  4    0.03
   5     0.00043049     0.23025499     2.56e-08      5  5    0.04
   6     0.00043225     0.23025124     3.59e-09      6  0    0.04
   7     0.00043302     0.23025361     4.11e-10      6  1    0.05
   8     0.00043331     0.23025503     2.02e-11      6  2    0.06
   9     0.00043337     0.23025546     4.19e-13      6  3    0.07
  10     0.00043338     0.23025549     3.83e-14      6  4    0.07
  11     0.00043338     0.23025550     2.47e-15      6  5    0.08
  12     0.00043338     0.23025549     1.09e-16      6  0    0.09
  13     0.00043338     0.23025549     1.02e-17      6  1    0.10
  14     0.00043338     0.23025549     4.21e-19      6  2    0.10
  15     0.00043338     0.23025549     2.87e-20      6  3    0.11
  16     0.00043338     0.23025549     3.32e-21              0.12


 Time per iteration:                      0.01 sec

 CPHF start vector      0.2 not found

 Starting Coupled-perturbed Hartree-Fock, convergence threshold= 1.0D-06

 ITER   MIC  DIIS      VAR         VARC       CPU
   1     0     1    0.22D-02    0.65D-03     0.00
   2     3     2    0.89D-04    0.13D-04     0.00
   3     4     3    0.11D-05    0.37D-06     0.00
   4     1     4    0.18D-06    0.81D-08     0.00

 CPHF convergence reached in  4 macroiterations and    8 microiterations.   Accuracy: 1.8301D-07

 CPHF solution written to record  8500.2

 Dipole moments (unrelaxed):            0.00000000     0.00000000    -0.81797039
 Orbital relaxation contribution:      -0.00000000    -0.00000000    -0.00185371
 !CCSD(T) STATE 1.1 Dipole moment       0.00000000     0.00000000    -0.81982410
 Dipole moment /Debye                   0.00000000     0.00000000    -2.08378502

 CPU-time for coupled-perturbed hartree-fock:          0.00 sec

 Number of N-1 electron functions:               4
 Number of N-2 electron functions:              10
 Number of singly external CSFs:                50
 Number of doubly external CSFs:              3124
 Total number of CSFs:                        3175

 CCSD(T) gradient info saved on record        55555.1




 **********************************************************************************************************************************
 DATASETS  * FILE   NREC   LENGTH (MB)   RECORD NAMES
              1      21       29.51       500      610      700      900      950      970     1000      129      960     1100   
                                          VAR    BASINP    GEOM    SYMINP    ZMAT    AOBASIS   BASIS     P2S    ABASIS      S 
                                         1400     1410     1200     1210     1080     1600     1650     1700     1380     3791   
                                           T        V       H0       H01     AOSYM     SMH    MOLCAS    OPER     JKOP   
                                        55555   
                                        CCSD(T)    

              2       5        0.41       700     1000      520     2100     8500   
                                         GEOM     BASIS   MCVARS     RHF     CPHF   

 PROGRAMS   *        TOTAL   CCSD(T)    HF-SCF       INT
 CPU TIMES  *         0.73      0.32      0.01      0.27
 REAL TIME  *         2.07 SEC
 DISK USED  *        29.96 MB (local),      272.76 MB (total)
 SF USED    *         6.55 MB
 GA USED    *         0.00 MB       (max)       0.00 MB       (current)
 **********************************************************************************************************************************


 PROGRAM * HESSIAN

 *** Long output written to logfile /gpfs01/work/emmanous/6Frequencies/implementation/MOLPRO/G4-T'/EXAMPLE_H2O/h2o.CCSDt.def2TZVP.log ***


 Computing numerical hessian using default procedure for command CCSD(T)

 Symmetry elements for unique displacements: X  Y  

 Using AUTO symmetry option

 Running default procedure: HF-SCF000  CCSD(T)


 Numerically approximating hessian using central gradient differences

 Task list generated. Total number of displacements:      9

 All   9 tasks completed.  CPU=     12.70 sec, Elapsed=     12.95 sec.

 CCSD(T) hessian saved to record  5300.2

 PROGRAM * FREQUENCIES (Calculation of harmonic vibrational spectra for CCSD(T))


 Permanent Dipole Moment [debye]
   1-  3    0.000000    0.000000   -2.083785

 Dipole Moment Norm    2.0837850 [debye]

 Dipole Moment Derivatives [debye/ang]
              1             2             3             4             5             6             7             8
    1   -3.54257967    0.00000000    0.00000000    1.77129767    0.00000000    0.00000000    1.77129767    0.00000000
    2    0.00000000   -2.30020940    0.00000000    0.00000000    1.15008995    0.48275508    0.00000000    1.15008995
    3    0.00000000    0.00000000   -1.72752069    0.00000000    0.36155115    0.86377670    0.00000000   -0.36155115
              9
    1    0.00000000
    2   -0.48275508
    3    0.86377670

 Force Constants (Second Derivatives of the Energy) in [a.u.]
                             OX1         OY1         OZ1         HX2         HY2     
           OX1          -0.0041053
           OY1           0.0000000   0.6935892
           OZ1           0.0000000   0.0000000   0.4601858
           HX2           0.0020551   0.0000000   0.0000000  -0.0024457
           HY2           0.0000000  -0.3467944   0.2089514   0.0000000   0.3781708
           HZ2           0.0000000   0.2711416  -0.2300952   0.0000000  -0.2400459
           HX3           0.0020551   0.0000000   0.0000000   0.0003881   0.0000000
           HY3           0.0000000  -0.3467944  -0.2089514   0.0000000  -0.0313766
           HZ3           0.0000000  -0.2711416  -0.2300952   0.0000000   0.0310955
                             HZ2         HX3         HY3         HZ3     
           HZ2           0.2189712
           HX3           0.0000000  -0.0024457
           HY3          -0.0310955  -0.0000000   0.3781708
           HZ3           0.0111264   0.0000000   0.2400459   0.2189712


 Atomic Masses
   1-  3   15.994910    1.007825    1.007825

 Mass weighted Second Derivative Matrix
                             OX1         OY1         OZ1         HX2         HY2     
           OX1          -0.0002567
           OY1           0.0000000   0.0433631
           OZ1           0.0000000   0.0000000   0.0287708
           HX2           0.0005119   0.0000000   0.0000000  -0.0024267
           HY2           0.0000000  -0.0863751   0.0520429   0.0000000   0.3752345
           HZ2           0.0000000   0.0675325  -0.0573092   0.0000000  -0.2381822
           HX3           0.0005119   0.0000000   0.0000000   0.0003851   0.0000000
           HY3           0.0000000  -0.0863751  -0.0520429   0.0000000  -0.0311330
           HZ3           0.0000000  -0.0675325  -0.0573092   0.0000000   0.0308540
                             HZ2         HX3         HY3         HZ3     
           HZ2           0.2172711
           HX3           0.0000000  -0.0024267
           HY3          -0.0308540  -0.0000000   0.3752345
           HZ3           0.0110400   0.0000000   0.2381822   0.2172711


 Mass Weighted 2nd Derivative Matrix Eigenvalues
   1-  9   -0.002812   -0.002674   -0.002298    0.000000    0.000000    0.000000    0.099403    0.564047    0.596369

 Mass Weighted 2nd Derivative Matrix Eigenvectors
              1             2             3             4             5             6             7             8
    1    0.00000000    0.00000000   -0.33417699    0.00000000    0.00000000    0.94251034    0.00000000    0.00000000
    2    0.00000000   -0.19755776    0.00000000    0.00000169    0.94238215    0.00000000    0.00000000    0.00000000
    3    0.00000000    0.00000000    0.00000000    0.94238506   -0.00000169    0.00000000   -0.27190388    0.19488119
    4    0.70710678    0.00000000    0.66645545    0.00000000    0.00000000    0.23629881    0.00000000    0.00000000
    5    0.00000000    0.39351090    0.00000000   -0.00000281    0.23655432    0.00000000    0.41191906    0.57473706
    6    0.00000000    0.57064405    0.00000000    0.23654852    0.00000089    0.00000000    0.54162425   -0.38818549
    7   -0.70710678    0.00000000    0.66645545    0.00000000    0.00000000    0.23629881    0.00000000    0.00000000
    8    0.00000000    0.39351090    0.00000000    0.00000366    0.23655432    0.00000000   -0.41191906   -0.57473706
    9    0.00000000   -0.57064405    0.00000000    0.23654852   -0.00000174    0.00000000    0.54162425   -0.38818549
              9
    1    0.00000000
    2   -0.26997560
    3    0.00000000
    4    0.00000000
    5    0.53776503
    6   -0.41757079
    7    0.00000000
    8    0.53776503
    9    0.41757079

 Imaginary Vibration  Wavenumber
        Nr             [1/cm] 
        1              272.58
        2              265.80
        3              246.44
        4                0.01
        5                0.00

   Low Vibration      Wavenumber
        Nr             [1/cm] 
        1                0.09

     Vibration        Wavenumber
        Nr             [1/cm] 
        1             1620.70
        2             3860.66
        3             3969.74

 FREQUENCIES * CALCULATION OF NORMAL MODES FOR CCSD(T)


 Atomic Coordinates

  Nr  Atom  Charge       X              Y              Z

   1   O     8.00    0.000000000    0.000000000    0.221628984
   2   H     1.00    0.000000000    1.430246175   -0.889884322
   3   H     1.00    0.000000000   -1.430246175   -0.889884322

 Normal Modes

                              1 A1        2 A1        3 B2 
 Wavenumbers [cm-1]         1620.70     3860.66     3969.74
 Intensities [km/mol]         76.58        4.83       41.07
 Intensities [relative]       25.85        1.63       13.86
           OX1              0.00000    -0.00000    -0.00000
           OY1             -0.00000    -0.00000    -0.06750
           OZ1             -0.06799     0.04873    -0.00000
           HX2              0.00000    -0.00000     0.00000
           HY2              0.41032     0.57250     0.53567
           HZ2              0.53952    -0.38668    -0.41595
           HX3             -0.00000     0.00000    -0.00000
           HY3             -0.41032    -0.57250     0.53567
           HZ3              0.53952    -0.38668     0.41595


 Normal Modes of imaginary frequencies

                                  1           2           3           4           5
 Wavenumbers [cm-1]          272.58      265.80      246.44        0.01        0.00
 Intensities [km/mol]          0.00      103.37      296.25        0.00        0.00
 Intensities [relative]        0.00       34.89      100.00        0.00        0.00
           OX1             -0.00000    -0.00000    -0.08356    -0.00000    -0.00000
           OY1             -0.00000    -0.04940    -0.00000     0.00000     0.23563
           OZ1              0.00000    -0.00000    -0.00000     0.23563    -0.00000
           HX2              0.70436    -0.00000     0.66386    -0.00000    -0.00000
           HY2              0.00000     0.39198    -0.00000    -0.00000     0.23563
           HZ2              0.00000     0.56842    -0.00000     0.23563     0.00000
           HX3             -0.70436     0.00000     0.66386     0.00000    -0.00000
           HY3              0.00000     0.39198    -0.00000     0.00000     0.23563
           HZ3             -0.00000    -0.56842     0.00000     0.23563    -0.00000


 Normal Modes of low/zero frequencies

                                  1
 Wavenumbers [cm-1]            0.09
 Intensities [km/mol]          0.00
 Intensities [relative]        0.00
           OX1              0.23567
           OY1              0.00000
           OZ1             -0.00000
           HX2              0.23538
           HY2              0.00000
           HZ2              0.00000
           HX3              0.23538
           HY3              0.00000
           HZ3             -0.00000


 Frequencies dumped to record   5400.2

 Zero point energy:  0.02153120 [H]     4725.55 [1/CM]       56.53 [KJ/MOL]
 Frequency information read from record  5400.2

 Recomputing wavefunction at initial geometry


 **********************************************************************************************************************************
 DATASETS  * FILE   NREC   LENGTH (MB)   RECORD NAMES
              1      21       29.51       500      610      700      900      950      970     1000      129      960     1100   
                                          VAR    BASINP    GEOM    SYMINP    ZMAT    AOBASIS   BASIS     P2S    ABASIS      S 
                                         1400     1410     1200     1210     1080     1600     1650     1700     1380     3791   
                                           T        V       H0       H01     AOSYM     SMH    MOLCAS    OPER     JKOP   
                                        55555   
                                        CCSD(T)    

              2       8        0.43       700     1000      520     2100     8500     5300     5450     5400   
                                         GEOM     BASIS   MCVARS     RHF     CPHF     HESS     NMOD     FREQ   

 PROGRAMS   *        TOTAL      FREQ   CCSD(T)    HF-SCF       INT
 CPU TIMES  *        14.87     14.13      0.32      0.01      0.27
 REAL TIME  *        18.11 SEC
 DISK USED  *        38.79 MB (local),      413.21 MB (total)
 SF USED    *         6.57 MB
 GA USED    *         0.00 MB       (max)       0.00 MB       (current)
 **********************************************************************************************************************************

 CCSD(T)/DEF2-TZVP energy=    -76.326588102074

         CCSD(T)          HF-SCF
    -76.32658810    -76.05894164
 **********************************************************************************************************************************
 Molpro calculation terminated
