
 Working directory              : /scratch/emmanous/h2o.MP2.def2QZVPPDprime.com.7743/molpro.tKqGrr1ZwV/
 Global scratch directory       : /scratch/emmanous/h2o.MP2.def2QZVPPDprime.com.7743/molpro.tKqGrr1ZwV/
 Wavefunction directory         : /home/emmanous/wfu/
 Main file repository           : /scratch/emmanous/h2o.MP2.def2QZVPPDprime.com.7743/molpro.tKqGrr1ZwV/

 id        : wis

 Nodes     nprocs
 cff155       8
 GA implementation: MPI file
 GA implementation (serial work in mppx): MPI file

 Using DEFAULT tuning parameter for ncache   :   16384
 Using DEFAULT tuning parameter for mflopdgm :   10000
 Using DEFAULT tuning parameter for mflopdgv :    4000
 Using DEFAULT tuning parameter for mflopmxm :    5000
 Using DEFAULT tuning parameter for mflopmxv :    4000
 Using DEFAULT tuning parameter for mindgm   :       1
 Using DEFAULT tuning parameter for mindgc   :       4
 Using DEFAULT tuning parameter for mindgf   :    5000
 Using DEFAULT tuning parameter for mindgl   :       4
 Using DEFAULT tuning parameter for mindgr   :       1
 Using DEFAULT tuning parameter for mindgv   :      20
 Using DEFAULT tuning parameter for mincuda  :     500
 Using DEFAULT tuning parameter for mxmblk   :      64
 Using DEFAULT tuning parameter for mxmbln   :      64
 Using DEFAULT tuning parameter for nroll    :       2
 Using custom tuning parameter for ngpus     :       0
 Using customized tuning parameters: mindgm=1; mindgv=20; mindgc=4; mindgr=1; noblas=0; minvec=7

 Fortran compiler: integer size=8, double size=8, logical size=8
 default implementation of scratch files=sf  


 Variables initialized (1015), CPU time= 0.01 sec
 gthresh,energy=1d-12,gradient=1d-6,twoint=1d-18,prefac=1d-20
 noorient
 charge=0
 multiplicity=1
 geomtyp=xyz
 geom={
  O          0.0000000000        0.0000000000        0.1172810075
  H          0.0000000000        0.7568536819       -0.4709065037
  H          0.0000000000       -0.7568536819       -0.4709065037
 }
 MASS,ISO
 MASS,PRINT
 
 basis,def2-QZVPPD,h=def2-QZVPP
 hf
 mp2
 {freq,analytic,print=3;noproject}
 
 Commands initialized (834), CPU time= 0.01 sec, 672 directives.
 Default parameters read. Elapsed time= 0.07 sec

 Using DEFAULT tuning parameter for mpplat   :       3
 Using DEFAULT tuning parameter for mppspeed :    1600
 Checking input...
 Passed
1


                                         ***  PROGRAM SYSTEM MOLPRO  ***
                                       Copyright, TTI GmbH Stuttgart, 2015
                                    Version 2022.2 linked Thu May  5 23:39:45 2022


 **********************************************************************************************************************************
 LABEL *                                                                                 
  64 bit mpp version                                                                     DATE: 12-Aug-23          TIME: 11:29:09  
 **********************************************************************************************************************************

 SHA1:             518bf5c5e315925380b88506c70af759aa1d1d96
 **********************************************************************************************************************************

 Memory per process:      1500 MW
 Total memory per node:  12000 MW

 GA preallocation disabled
 GA check disabled

 Variable memory set to 1500.0 MW


 THRESHOLDS:

 ZERO    =  1.00D-12  ONEINT  =  1.00D-12  TWOINT  =  1.00D-18  PREFAC  =  1.00D-20  XXXXXX  =  1.00D-09  EORDER  =  1.00D-04
 ENERGY  =  1.00D-12  ETEST   =  0.00D+00  EDENS   =  0.00D+00  THRDEDEF=  1.00D-06  GRADIENT=  1.00D-06  STEP    =  1.00D-03
 ORBITAL =  1.00D-05  CIVEC   =  1.00D-05  COEFF   =  1.00D-04  PRINTCI =  5.00D-02  PUNCHCI =  9.90D+01  OPTGRAD =  3.00D-04
 OPTENERG=  1.00D-06  OPTSTEP =  3.00D-04  THRGRAD =  1.00D-10  COMPRESS=  1.00D-11  VARMIN  =  1.00D-07  VARMAX  =  1.00D-03
 THRDOUB =  0.00D+00  THRDIV  =  1.00D-05  THRRED  =  1.00D-07  THRPSP  =  1.00D+00  THRDC   =  1.00D-10  THRCS   =  1.00D-10
 THRNRM  =  1.00D-08  THREQ   =  0.00D+00  THRDE   =  1.00D+00  THRREF  =  1.00D-05  SPARFAC =  1.00D+00  THRDLP  =  1.00D-07
 THRDIA  =  1.00D-10  THRDLS  =  1.00D-07  THRGPS  =  0.00D+00  THRKEX  =  0.00D+00  THRDIS  =  2.00D-01  THRVAR  =  1.00D-10
 THRLOC  =  1.00D-06  THRGAP  =  1.00D-06  THRLOCT = -1.00D+00  THRGAPT = -1.00D+00  THRORB  =  1.00D-06  THRMLTP =  0.00D+00
 THRCPQCI=  1.00D-10  KEXTA   =  0.00D+00  THRCOARS=  0.00D+00  SYMTOL  =  1.00D-06  GRADTOL =  1.00D-06  THROVL  =  1.00D-08
 THRORTH =  1.00D-08  THRDLOVL= -1.00D+00  GRID    =  1.00D-06  GRIDMAX =  1.00D-03  DTMAX   =  0.00D+00  THROCCDE=  1.00D-01
 THROCCDE=  1.00D-01  THRPRINT=  2.50D-01

 SETTING CHARGE         =      0.0000000D+00                                  
 SETTING MULTIPLICITY   =         1.00000000                                  
 SETTING GEOMTYP        =    XYZ


 Using masses of most abundant isotopes

 **********************************************************************************************************************************


 Atomic masses

 Center       Mass
 O         15.99491
 H          1.00782
 H          1.00782
 SETTING BASIS          =    DEF2-QZVPPD,H=DEF2-QZVPP


 Recomputing integrals since basis changed


 Using spherical harmonics

 Library entry O      S def2-QZVPPD          selected for orbital group  1
 Library entry O      P def2-QZVPPD          selected for orbital group  1
 Library entry O      D def2-QZVPPD          selected for orbital group  1
 Library entry O      F def2-QZVPPD          selected for orbital group  1
 Library entry O      G def2-QZVPPD          selected for orbital group  1
 Library entry H      S def2-QZVPP           selected for orbital group  2
 Library entry H      P def2-QZVPP           selected for orbital group  2
 Library entry H      D def2-QZVPP           selected for orbital group  2
 Library entry H      F def2-QZVPP           selected for orbital group  2


 PROGRAM * SEWARD (Integral evaluation for generally contracted gaussian basis sets)     Author: Roland Lindh, 1990

 Geometry written to block  1 of record 700


 Point group  C2v 



 ATOMIC COORDINATES

 NR  ATOM    CHARGE       X              Y              Z

   1  O       8.00    0.000000000    0.000000000    0.221628984
   2  H       1.00    0.000000000    1.430246175   -0.889884322
   3  H       1.00    0.000000000   -1.430246175   -0.889884322

 Bond lengths in Bohr (Angstrom)

 1-2  1.811371290  1-3  1.811371290
     ( 0.958536407)     ( 0.958536407)

 Bond angles

  2-1-3  104.29499459

 NUCLEAR CHARGE:                   10
 NUMBER OF PRIMITIVE AOS:         178
 NUMBER OF SYMMETRY AOS:          152
 NUMBER OF CONTRACTIONS:          126   (   48A1  +   25B1  +   35B2  +   18A2  )
 NUMBER OF INNER CORE ORBITALS:     0   (    0A1  +    0B1  +    0B2  +    0A2  )
 NUMBER OF OUTER CORE ORBITALS:     1   (    1A1  +    0B1  +    0B2  +    0A2  )
 NUMBER OF VALENCE ORBITALS:        6   (    3A1  +    1B1  +    2B2  +    0A2  )


 NUCLEAR REPULSION ENERGY    9.18267706

 Eigenvalues of metric

         1 0.140E-03 0.831E-03 0.157E-02 0.460E-02 0.705E-02 0.939E-02 0.131E-01 0.288E-01
         2 0.107E-01 0.377E-01 0.397E-01 0.109E+00 0.152E+00 0.183E+00 0.269E+00 0.385E+00
         3 0.249E-03 0.144E-02 0.413E-02 0.695E-02 0.129E-01 0.246E-01 0.545E-01 0.752E-01
         4 0.137E-01 0.516E-01 0.110E+00 0.247E+00 0.268E+00 0.339E+00 0.443E+00 0.466E+00


 Contracted 2-electron integrals neglected if value below      1.0D-18
 AO integral compression algorithm  1   Integral accuracy      1.0D-18

     88.867 MB (compressed) written to integral file ( 99.2%)

     Node minimum: 9.175 MB, node maximum: 12.845 MB


 NUMBER OF SORTED TWO-ELECTRON INTEGRALS:    1031087.     BUFFER LENGTH:  32768
 NUMBER OF SEGMENTS:   1  SEGMENT LENGTH:    1031087      RECORD LENGTH: 524288

 Memory used in sort:       1.59 MW

 SORT1 READ    11152794. AND WROTE      960742. INTEGRALS IN      3 RECORDS. CPU TIME:     0.16 SEC, REAL TIME:     0.16 SEC
 SORT2 READ     7746232. AND WROTE     8303215. INTEGRALS IN    344 RECORDS. CPU TIME:     0.02 SEC, REAL TIME:     0.03 SEC

 Node minimum:     1027201.  Node maximum:     1045202. integrals

 OPERATOR DM      FOR CENTER  0  COORDINATES:    0.000000    0.000000    0.000000


 **********************************************************************************************************************************
 DATASETS  * FILE   NREC   LENGTH (MB)   RECORD NAMES
              1      18       28.79       500      610      700      900      950      970     1000      129      960     1100   
                                          VAR    BASINP    GEOM    SYMINP    ZMAT    AOBASIS   BASIS     P2S    ABASIS      S 
                                         1400     1410     1200     1210     1080     1600     1650     1700   
                                           T        V       H0       H01     AOSYM     SMH    MOLCAS    OPER   

 PROGRAMS   *        TOTAL       INT
 CPU TIMES  *         0.71      0.58
 REAL TIME  *         1.68 SEC
 DISK USED  *        29.10 MB (local),      392.13 MB (total)
 GA USED    *         0.00 MB       (max)       0.00 MB       (current)
 **********************************************************************************************************************************


 Program * Restricted Hartree-Fock

 Orbital guess generated from atomic densities.

 Initial occupancy:   3   1   1   0

 NELEC=   10   SYM=1   MS2= 0   THRE=1.0D-12   THRD=1.0D-06   THRG=1.0D-06  HFMA2=F  DIIS_START=2   DIIS_MAX=10   DIIS_INCORE=F

 Level shifts:    0.00 (CLOSED)    0.00 (OPEN)    0.30 (GAP_MIN)

 ITER           ETOT              DE          GRAD        DDIFF     DIIS  NEXP   TIME(IT)  TIME(TOT)  DIAG
   1      -76.02857576     -76.02857576     0.00D+00     0.32D-01     0     0       0.01      0.02    start
   2      -76.05563265      -0.02705689     0.16D-01     0.50D-02     1     0       0.00      0.02    diag
   3      -76.06677673      -0.01114408     0.98D-02     0.16D-02     2     0       0.00      0.02    diag
   4      -76.06695827      -0.00018154     0.90D-03     0.24D-03     3     0       0.01      0.03    diag
   5      -76.06697634      -0.00001807     0.25D-03     0.91D-04     4     0       0.00      0.03    diag
   6      -76.06697738      -0.00000104     0.46D-04     0.23D-04     5     0       0.01      0.04    diag
   7      -76.06697743      -0.00000005     0.90D-05     0.54D-05     6     0       0.00      0.04    diag
   8      -76.06697743      -0.00000000     0.18D-05     0.95D-06     7     0       0.00      0.04    fixocc
   9      -76.06697743      -0.00000000     0.22D-06     0.12D-06     8     0       0.01      0.05    diag
  10      -76.06697743      -0.00000000     0.47D-07     0.23D-07     9     0       0.00      0.05    diag/orth
  11      -76.06697743      -0.00000000     0.91D-08     0.47D-08     0     0       0.00      0.05    diag

 Final occupancy:   3   1   1   0

 !RHF STATE 1.1 Energy                -76.066977430070
  RHF One-electron energy            -123.041311991386
  RHF Two-electron energy              37.791657502265
  RHF Kinetic energy                   75.989288414904
  RHF Nuclear energy                    9.182677059051
  RHF Virial quotient                  -1.001022367978

 !RHF STATE 1.1 Dipole moment           0.00000000     0.00000000    -0.78180860
 Dipole moment /Debye                   0.00000000     0.00000000    -1.98715925

 Orbital energies:

           1.1          2.1          3.1          4.1          5.1
    -20.564685    -1.352149    -0.585104     0.089963     0.115116

           1.2          2.2          3.2
     -0.510436     0.111733     0.390606

           1.3          2.3          3.3
     -0.716625     0.094108     0.203913

           1.4          2.4
      0.383250     0.890206


 HOMO      1.2    -0.510436 =     -13.8897eV
 LUMO      4.1     0.089963 =       2.4480eV
 LUMO-HOMO         0.600399 =      16.3377eV

 Orbitals saved in record  2100.2


 **********************************************************************************************************************************
 DATASETS  * FILE   NREC   LENGTH (MB)   RECORD NAMES
              1      18       28.79       500      610      700      900      950      970     1000      129      960     1100   
                                          VAR    BASINP    GEOM    SYMINP    ZMAT    AOBASIS   BASIS     P2S    ABASIS      S 
                                         1400     1410     1200     1210     1080     1600     1650     1700   
                                           T        V       H0       H01     AOSYM     SMH    MOLCAS    OPER   

              2       4        0.46       700     1000      520     2100   
                                         GEOM     BASIS   MCVARS     RHF  

 PROGRAMS   *        TOTAL    HF-SCF       INT
 CPU TIMES  *         0.86      0.13      0.58
 REAL TIME  *         2.01 SEC
 DISK USED  *        29.63 MB (local),      396.29 MB (total)
 GA USED    *         0.00 MB       (max)       0.00 MB       (current)
 **********************************************************************************************************************************


 PROGRAM * MP2 (Closed-shell)     Authors: C. Hampel, H.-J. Werner, 1991, M. Deegan, P.J. Knowles, 1992


 Convergence thresholds:  THRVAR = 1.00D-16  THRDEN = 1.00D-12

 Number of core orbitals:           1 (   1   0   0   0 )
 Number of closed-shell orbitals:   4 (   2   1   1   0 )
 Number of external orbitals:     121 (  45  24  34  18 )

 Molecular orbitals read from record     2100.2  Type=RHF/CANONICAL  

 Number of N-1 electron functions:               4
 Number of N-2 electron functions:              10
 Number of singly external CSFs:               148
 Number of doubly external CSFs:             30353
 Total number of CSFs:                       30502

 Length of J-op  integral file:               0.00 MB
 Length of K-op  integral file:               0.31 MB

 Integral transformation finished. Total CPU:   0.01 sec, npass=  1  Memory used:   0.12 MW

 Memory needed for MP2:                      0.02 MW

 SCS-MP2 correlation energy:           -0.281899252613   (PS=  1.200000  PT=  0.333333)
 SCS-MP2 total energy:                -76.348876682683


  Reference energy                    -76.066977430070
  MP2 singlet pair energy              -0.182927734447
  MP2 triplet pair energy              -0.100263168123
  MP2 correlation energy               -0.283190902570

 !MP2 total energy                    -76.350168332640

 KEXT needed  1 integral passes. Memory used:   0.23 MW  CPU time:      0.01 sec

 CPHF start vector      0.2 not found

 Starting Coupled-perturbed Hartree-Fock, convergence threshold= 1.0D-06

 ITER   MIC  DIIS      VAR         VARC       CPU
   1     0     1    0.32D-01    0.11D-02     0.00
   2     5     2    0.19D-03    0.10D-03     0.01
   3     3     3    0.26D-04    0.17D-05     0.01
   4     3     4    0.13D-05    0.14D-06     0.01
   5     1     5    0.10D-06    0.47D-08     0.01

 CPHF convergence reached in  5 macroiterations and   12 microiterations.   Accuracy: 1.0197D-07

 CPHF solution written to record  4100.2

 Dipole moments (unrelaxed):            0.00000000     0.00000000    -0.76594458
 Orbital relaxation contribution:      -0.00000000    -0.00000000     0.03325824
 !MP2 STATE 1.1 Dipole moment           0.00000000     0.00000000    -0.73268634
 Dipole moment /Debye                   0.00000000     0.00000000    -1.86230292

 CPU-time for density and lagrangian:                  0.00 sec
 CPU-time for coupled-perturbed hartree-fock:          0.01 sec

 MP2 gradient info saved on record         5200.1


 **********************************************************************************************************************************
 DATASETS  * FILE   NREC   LENGTH (MB)   RECORD NAMES
              1      20       29.74       500      610      700      900      950      970     1000      129      960     1100   
                                          VAR    BASINP    GEOM    SYMINP    ZMAT    AOBASIS   BASIS     P2S    ABASIS      S 
                                         1400     1410     1200     1210     1080     1600     1650     1700     1380     5200   
                                           T        V       H0       H01     AOSYM     SMH    MOLCAS    OPER     JKOP      MP2  

              2       5        0.67       700     1000      520     2100     4100   
                                         GEOM     BASIS   MCVARS     RHF     CPHF   

 PROGRAMS   *        TOTAL       MP2    HF-SCF       INT
 CPU TIMES  *         0.92      0.06      0.13      0.58
 REAL TIME  *         2.10 SEC
 DISK USED  *        30.48 MB (local),      403.11 MB (total)
 SF USED    *         2.16 MB
 GA USED    *         0.00 MB       (max)       0.00 MB       (current)
 **********************************************************************************************************************************


 PROGRAM * HESSIAN

 *** Long output written to logfile /gpfs01/work/emmanous/6Frequencies/implementation/MOLPRO/G4-T'/EXAMPLE_H2O/h2o.MP2.def2QZVPPDprime.log ***


 Computing numerical hessian using default procedure for command MP2

 Symmetry elements for unique displacements: X  Y  

 Using AUTO symmetry option

 Running default procedure: HF-SCF000  MP2


 Numerically approximating hessian using central gradient differences

 Task list generated. Total number of displacements:      9

 All   9 tasks completed.  CPU=     14.86 sec, Elapsed=     15.39 sec.

 MP2 hessian saved to record  5300.2

 PROGRAM * FREQUENCIES (Calculation of harmonic vibrational spectra for MP2)


 Permanent Dipole Moment [debye]
   1-  3    0.000000    0.000000   -1.862303

 Dipole Moment Norm    1.8623029 [debye]

 Dipole Moment Derivatives [debye/ang]
              1             2             3             4             5             6             7             8
    1   -3.16609932    0.00000000    0.00000000    1.58303870    0.00000000    0.00000000    1.58303870    0.00000000
    2    0.00000000   -2.56863692    0.00000000    0.00000000    1.28433781    0.23222460    0.00000000    1.28433781
    3    0.00000000    0.00000000   -1.72609491    0.00000000    0.31874871    0.86301555    0.00000000   -0.31874871
              9
    1    0.00000000
    2   -0.23222460
    3    0.86301555

 Force Constants (Second Derivatives of the Energy) in [a.u.]
                             OX1         OY1         OZ1         HX2         HY2     
           OX1           0.0000555
           OY1           0.0000000   0.6965715
           OZ1           0.0000000   0.0000000   0.4594498
           HX2          -0.0000267   0.0000000   0.0000000   0.0000759
           HY2           0.0000000  -0.3482864   0.2063856   0.0000000   0.3781479
           HZ2           0.0000000   0.2706708  -0.2297242   0.0000000  -0.2385269
           HX3          -0.0000267   0.0000000   0.0000000  -0.0000501   0.0000000
           HY3           0.0000000  -0.3482864  -0.2063856   0.0000000  -0.0298610
           HZ3           0.0000000  -0.2706708  -0.2297242   0.0000000   0.0321440
                             HZ2         HX3         HY3         HZ3     
           HZ2           0.2200800
           HX3           0.0000000   0.0000759
           HY3          -0.0321440  -0.0000000   0.3781479
           HZ3           0.0096435   0.0000000   0.2385269   0.2200800


 Atomic Masses
   1-  3   15.994910    1.007825    1.007825

 Mass weighted Second Derivative Matrix
                             OX1         OY1         OZ1         HX2         HY2     
           OX1           0.0000035
           OY1           0.0000000   0.0435496
           OZ1           0.0000000   0.0000000   0.0287248
           HX2          -0.0000067   0.0000000   0.0000000   0.0000753
           HY2           0.0000000  -0.0867467   0.0514039   0.0000000   0.3752119
           HZ2           0.0000000   0.0674152  -0.0572168   0.0000000  -0.2366750
           HX3          -0.0000067   0.0000000   0.0000000  -0.0000498   0.0000000
           HY3           0.0000000  -0.0867467  -0.0514039   0.0000000  -0.0296291
           HZ3           0.0000000  -0.0674152  -0.0572168   0.0000000   0.0318944
                             HZ2         HX3         HY3         HZ3     
           HZ2           0.2183712
           HX3           0.0000000   0.0000753
           HY3          -0.0318944  -0.0000000   0.3752119
           HZ3           0.0095686   0.0000000   0.2366750   0.2183712


 Mass Weighted 2nd Derivative Matrix Eigenvalues
   1-  9    0.000000    0.000000    0.000000    0.000029    0.000055    0.000125    0.101169    0.560337    0.597880

 Mass Weighted 2nd Derivative Matrix Eigenvectors
              1             2             3             4             5             6             7             8
    1    0.93816250    0.00000000    0.00000000   -0.34619522    0.00000000    0.00000000    0.00000000    0.00000000
    2    0.00000000    0.94275564    0.00000000    0.00000000   -0.19589627    0.00000000    0.00000000    0.00000000
    3    0.00000000    0.00000000    0.94238320    0.00000000    0.00000000    0.00000000   -0.27205462    0.19467973
    4    0.24479698    0.00000000    0.00000000    0.66338106    0.00000000    0.70710678    0.00000000    0.00000000
    5    0.00000000    0.23580655   -0.00000214    0.00000000    0.39421164    0.00000000    0.41148929    0.57504484
    6    0.00000000   -0.00108079    0.23655223    0.00000000    0.57044676    0.00000000    0.54191301   -0.38778001
    7    0.24479698    0.00000000    0.00000000    0.66338106    0.00000000   -0.70710678    0.00000000    0.00000000
    8    0.00000000    0.23580655    0.00000213    0.00000000    0.39421164    0.00000000   -0.41148929   -0.57504484
    9    0.00000000    0.00108079    0.23655223    0.00000000   -0.57044676    0.00000000    0.54191301   -0.38778001
              9
    1    0.00000000
    2   -0.26988229
    3    0.00000000
    4    0.00000000
    5    0.53758018
    6   -0.41783887
    7    0.00000000
    8    0.53758018
    9    0.41783887

 Imaginary Vibration  Wavenumber
        Nr             [1/cm] 
        1                0.34
        2                0.07
        3                0.01

   Low Vibration      Wavenumber
        Nr             [1/cm] 
        1               27.68
        2               38.04

     Vibration        Wavenumber
        Nr             [1/cm] 
        1               57.48
        2             1635.04
        3             3847.95
        4             3974.76

 FREQUENCIES * CALCULATION OF NORMAL MODES FOR MP2


 Atomic Coordinates

  Nr  Atom  Charge       X              Y              Z

   1   O     8.00    0.000000000    0.000000000    0.221628984
   2   H     1.00    0.000000000    1.430246175   -0.889884322
   3   H     1.00    0.000000000   -1.430246175   -0.889884322

 Normal Modes

                              1 A2        2 A1        3 A1        4 Err
 Wavenumbers [cm-1]           57.48     1635.04     3847.95     3974.76
 Intensities [km/mol]          0.00       72.56        6.28       77.64
 Intensities [relative]        0.00       93.46        8.09      100.00
           OX1             -0.00000    -0.00000     0.00000     0.00000
           OY1              0.00000    -0.00000    -0.00000    -0.06748
           OZ1             -0.00000    -0.06802     0.04868    -0.00000
           HX2              0.70436    -0.00000    -0.00000     0.00000
           HY2             -0.00000     0.40989     0.57281     0.53549
           HZ2             -0.00000     0.53981    -0.38627    -0.41621
           HX3             -0.70436     0.00000     0.00000    -0.00000
           HY3             -0.00000    -0.40989    -0.57281     0.53549
           HZ3              0.00000     0.53981    -0.38627     0.41621


 Normal Modes of imaginary frequencies

                                  1           2           3
 Wavenumbers [cm-1]            0.34        0.07        0.01
 Intensities [km/mol]          0.04        0.00        0.00
 Intensities [relative]        0.05        0.00        0.00
           OX1              0.23458    -0.00000     0.00000
           OY1              0.00000     0.23573    -0.00000
           OZ1              0.00000     0.00000     0.23563
           HX2              0.24384    -0.00000     0.00000
           HY2              0.00000     0.23489    -0.00000
           HZ2             -0.00000    -0.00108     0.23563
           HX3              0.24384    -0.00000    -0.00000
           HY3              0.00000     0.23489     0.00000
           HZ3              0.00000     0.00108     0.23563


 Normal Modes of low/zero frequencies

                                  1           2
 Wavenumbers [cm-1]           27.68       38.04
 Intensities [km/mol]          0.00        0.00
 Intensities [relative]        0.00        0.00
           OX1             -0.08656    -0.00000
           OY1             -0.00000    -0.04898
           OZ1              0.00000    -0.00000
           HX2              0.66080     0.00000
           HY2             -0.00000     0.39268
           HZ2             -0.00000     0.56823
           HX3              0.66080    -0.00000
           HY3             -0.00000     0.39268
           HZ3              0.00000    -0.56823


 Frequencies dumped to record   5400.2

 Zero point energy:  0.02167728 [H]     4757.61 [1/CM]       56.91 [KJ/MOL]
 Frequency information read from record  5400.2

 Recomputing wavefunction at initial geometry


 **********************************************************************************************************************************
 DATASETS  * FILE   NREC   LENGTH (MB)   RECORD NAMES
              1      20       29.74       500      610      700      900      950      970     1000      129      960     1100   
                                          VAR    BASINP    GEOM    SYMINP    ZMAT    AOBASIS   BASIS     P2S    ABASIS      S 
                                         1400     1410     1200     1210     1080     1600     1650     1700     1380     5200   
                                           T        V       H0       H01     AOSYM     SMH    MOLCAS    OPER     JKOP      MP2  

              2       8        0.76       700     1000      520     2100     4100     5300     5450     5400   
                                         GEOM     BASIS   MCVARS     RHF     CPHF     HESS     NMOD     FREQ   

 PROGRAMS   *        TOTAL      FREQ       MP2    HF-SCF       INT
 CPU TIMES  *        16.50     15.56      0.06      0.13      0.58
 REAL TIME  *        20.82 SEC
 DISK USED  *       350.78 MB (local),        2.84 GB (total)
 SF USED    *         2.37 MB
 GA USED    *         0.00 MB       (max)       0.00 MB       (current)
 **********************************************************************************************************************************

 MP2/DEF2-QZVPPD,H=DEF2-QZVPP energy=    -76.350168337185

             MP2          HF-SCF
    -76.35016833    -76.06697743
 **********************************************************************************************************************************
 Molpro calculation terminated
