
 Working directory              : /scratch/emmanous/h2o.MP2.def2TZVPPDprime.com.7572/molpro.D9umrTMD7e/
 Global scratch directory       : /scratch/emmanous/h2o.MP2.def2TZVPPDprime.com.7572/molpro.D9umrTMD7e/
 Wavefunction directory         : /home/emmanous/wfu/
 Main file repository           : /scratch/emmanous/h2o.MP2.def2TZVPPDprime.com.7572/molpro.D9umrTMD7e/

 id        : wis

 Nodes     nprocs
 cff155       8
 GA implementation: MPI file
 GA implementation (serial work in mppx): MPI file

 Using DEFAULT tuning parameter for ncache   :   16384
 Using DEFAULT tuning parameter for mflopdgm :   10000
 Using DEFAULT tuning parameter for mflopdgv :    4000
 Using DEFAULT tuning parameter for mflopmxm :    5000
 Using DEFAULT tuning parameter for mflopmxv :    4000
 Using DEFAULT tuning parameter for mindgm   :       1
 Using DEFAULT tuning parameter for mindgc   :       4
 Using DEFAULT tuning parameter for mindgf   :    5000
 Using DEFAULT tuning parameter for mindgl   :       4
 Using DEFAULT tuning parameter for mindgr   :       1
 Using DEFAULT tuning parameter for mindgv   :      20
 Using DEFAULT tuning parameter for mincuda  :     500
 Using DEFAULT tuning parameter for mxmblk   :      64
 Using DEFAULT tuning parameter for mxmbln   :      64
 Using DEFAULT tuning parameter for nroll    :       2
 Using custom tuning parameter for ngpus     :       0
 Using customized tuning parameters: mindgm=1; mindgv=20; mindgc=4; mindgr=1; noblas=0; minvec=7

 Fortran compiler: integer size=8, double size=8, logical size=8
 default implementation of scratch files=sf  


 Variables initialized (1015), CPU time= 0.00 sec
 gthresh,energy=1d-12,gradient=1d-6,twoint=1d-18,prefac=1d-20
 noorient
 charge=0
 multiplicity=1
 geomtyp=xyz
 geom={
  O          0.0000000000        0.0000000000        0.1172810075
  H          0.0000000000        0.7568536819       -0.4709065037
  H          0.0000000000       -0.7568536819       -0.4709065037
 }
 MASS,ISO
 MASS,PRINT
 
 basis,def2-TZVPPD,h=def2-TZVPP
 hf
 mp2
 {freq,analytic,print=3;noproject}
 
 Commands initialized (834), CPU time= 0.01 sec, 672 directives.
 Default parameters read. Elapsed time= 0.07 sec

 Using DEFAULT tuning parameter for mpplat   :       3
 Using DEFAULT tuning parameter for mppspeed :    1600
 Checking input...
 Passed
1


                                         ***  PROGRAM SYSTEM MOLPRO  ***
                                       Copyright, TTI GmbH Stuttgart, 2015
                                    Version 2022.2 linked Thu May  5 23:39:45 2022


 **********************************************************************************************************************************
 LABEL *                                                                                 
  64 bit mpp version                                                                     DATE: 12-Aug-23          TIME: 11:29:00  
 **********************************************************************************************************************************

 SHA1:             518bf5c5e315925380b88506c70af759aa1d1d96
 **********************************************************************************************************************************

 Memory per process:      1500 MW
 Total memory per node:  12000 MW

 GA preallocation disabled
 GA check disabled

 Variable memory set to 1500.0 MW


 THRESHOLDS:

 ZERO    =  1.00D-12  ONEINT  =  1.00D-12  TWOINT  =  1.00D-18  PREFAC  =  1.00D-20  XXXXXX  =  1.00D-09  EORDER  =  1.00D-04
 ENERGY  =  1.00D-12  ETEST   =  0.00D+00  EDENS   =  0.00D+00  THRDEDEF=  1.00D-06  GRADIENT=  1.00D-06  STEP    =  1.00D-03
 ORBITAL =  1.00D-05  CIVEC   =  1.00D-05  COEFF   =  1.00D-04  PRINTCI =  5.00D-02  PUNCHCI =  9.90D+01  OPTGRAD =  3.00D-04
 OPTENERG=  1.00D-06  OPTSTEP =  3.00D-04  THRGRAD =  1.00D-10  COMPRESS=  1.00D-11  VARMIN  =  1.00D-07  VARMAX  =  1.00D-03
 THRDOUB =  0.00D+00  THRDIV  =  1.00D-05  THRRED  =  1.00D-07  THRPSP  =  1.00D+00  THRDC   =  1.00D-10  THRCS   =  1.00D-10
 THRNRM  =  1.00D-08  THREQ   =  0.00D+00  THRDE   =  1.00D+00  THRREF  =  1.00D-05  SPARFAC =  1.00D+00  THRDLP  =  1.00D-07
 THRDIA  =  1.00D-10  THRDLS  =  1.00D-07  THRGPS  =  0.00D+00  THRKEX  =  0.00D+00  THRDIS  =  2.00D-01  THRVAR  =  1.00D-10
 THRLOC  =  1.00D-06  THRGAP  =  1.00D-06  THRLOCT = -1.00D+00  THRGAPT = -1.00D+00  THRORB  =  1.00D-06  THRMLTP =  0.00D+00
 THRCPQCI=  1.00D-10  KEXTA   =  0.00D+00  THRCOARS=  0.00D+00  SYMTOL  =  1.00D-06  GRADTOL =  1.00D-06  THROVL  =  1.00D-08
 THRORTH =  1.00D-08  THRDLOVL= -1.00D+00  GRID    =  1.00D-06  GRIDMAX =  1.00D-03  DTMAX   =  0.00D+00  THROCCDE=  1.00D-01
 THROCCDE=  1.00D-01  THRPRINT=  2.50D-01

 SETTING CHARGE         =      0.0000000D+00                                  
 SETTING MULTIPLICITY   =         1.00000000                                  
 SETTING GEOMTYP        =    XYZ


 Using masses of most abundant isotopes

 **********************************************************************************************************************************


 Atomic masses

 Center       Mass
 O         15.99491
 H          1.00782
 H          1.00782
 SETTING BASIS          =    DEF2-TZVPPD,H=DEF2-TZVPP


 Recomputing integrals since basis changed


 Using spherical harmonics

 Library entry O      S def2-TZVPPD          selected for orbital group  1
 Library entry O      P def2-TZVPPD          selected for orbital group  1
 Library entry O      D def2-TZVPPD          selected for orbital group  1
 Library entry O      F def2-TZVPPD          selected for orbital group  1
 Library entry H      S def2-TZVPP           selected for orbital group  2
 Library entry H      P def2-TZVPP           selected for orbital group  2
 Library entry H      D def2-TZVPP           selected for orbital group  2


 PROGRAM * SEWARD (Integral evaluation for generally contracted gaussian basis sets)     Author: Roland Lindh, 1990

 Geometry written to block  1 of record 700


 Point group  C2v 



 ATOMIC COORDINATES

 NR  ATOM    CHARGE       X              Y              Z

   1  O       8.00    0.000000000    0.000000000    0.221628984
   2  H       1.00    0.000000000    1.430246175   -0.889884322
   3  H       1.00    0.000000000   -1.430246175   -0.889884322

 Bond lengths in Bohr (Angstrom)

 1-2  1.811371290  1-3  1.811371290
     ( 0.958536407)     ( 0.958536407)

 Bond angles

  2-1-3  104.29499459

 NUCLEAR CHARGE:                   10
 NUMBER OF PRIMITIVE AOS:          95
 NUMBER OF SYMMETRY AOS:           87
 NUMBER OF CONTRACTIONS:           68   (   28A1  +   13B1  +   19B2  +    8A2  )
 NUMBER OF INNER CORE ORBITALS:     0   (    0A1  +    0B1  +    0B2  +    0A2  )
 NUMBER OF OUTER CORE ORBITALS:     1   (    1A1  +    0B1  +    0B2  +    0A2  )
 NUMBER OF VALENCE ORBITALS:        6   (    3A1  +    1B1  +    2B2  +    0A2  )


 NUCLEAR REPULSION ENERGY    9.18267706

 Eigenvalues of metric

         1 0.872E-03 0.426E-02 0.101E-01 0.472E-01 0.663E-01 0.916E-01 0.121E+00 0.139E+00
         2 0.732E-01 0.930E-01 0.255E+00 0.442E+00 0.542E+00 0.651E+00 0.784E+00 0.104E+01
         3 0.155E-02 0.952E-02 0.431E-01 0.767E-01 0.137E+00 0.176E+00 0.279E+00 0.340E+00
         4 0.105E+00 0.196E+00 0.503E+00 0.722E+00 0.880E+00 0.126E+01 0.144E+01 0.257E+01


 Contracted 2-electron integrals neglected if value below      1.0D-18
 AO integral compression algorithm  1   Integral accuracy      1.0D-18

     8.913 MB (compressed) written to integral file (100.0%)

     Node minimum: 1.049 MB, node maximum: 1.311 MB


 NUMBER OF SORTED TWO-ELECTRON INTEGRALS:      89699.     BUFFER LENGTH:  32768
 NUMBER OF SEGMENTS:   1  SEGMENT LENGTH:      89699      RECORD LENGTH: 524288

 Memory used in sort:       0.65 MW

 SORT1 READ     1011314. AND WROTE       82643. INTEGRALS IN      1 RECORDS. CPU TIME:     0.02 SEC, REAL TIME:     0.02 SEC
 SORT2 READ      679929. AND WROTE      739926. INTEGRALS IN     40 RECORDS. CPU TIME:     0.01 SEC, REAL TIME:     0.01 SEC

 Node minimum:       89611.  Node maximum:       94745. integrals

 OPERATOR DM      FOR CENTER  0  COORDINATES:    0.000000    0.000000    0.000000


 **********************************************************************************************************************************
 DATASETS  * FILE   NREC   LENGTH (MB)   RECORD NAMES
              1      18       28.65       500      610      700      900      950      970     1000      129      960     1100   
                                          VAR    BASINP    GEOM    SYMINP    ZMAT    AOBASIS   BASIS     P2S    ABASIS      S 
                                         1400     1410     1200     1210     1080     1600     1650     1700   
                                           T        V       H0       H01     AOSYM     SMH    MOLCAS    OPER   

 PROGRAMS   *        TOTAL       INT
 CPU TIMES  *         0.43      0.30
 REAL TIME  *         1.40 SEC
 DISK USED  *        28.95 MB (local),      269.39 MB (total)
 GA USED    *         0.00 MB       (max)       0.00 MB       (current)
 **********************************************************************************************************************************


 Program * Restricted Hartree-Fock

 Orbital guess generated from atomic densities.

 Initial occupancy:   3   1   1   0

 NELEC=   10   SYM=1   MS2= 0   THRE=1.0D-12   THRD=1.0D-06   THRG=1.0D-06  HFMA2=F  DIIS_START=2   DIIS_MAX=10   DIIS_INCORE=F

 Level shifts:    0.00 (CLOSED)    0.00 (OPEN)    0.30 (GAP_MIN)

 ITER           ETOT              DE          GRAD        DDIFF     DIIS  NEXP   TIME(IT)  TIME(TOT)  DIAG
   1      -76.02569494     -76.02569494     0.00D+00     0.70D-01     0     0       0.00      0.01    start
   2      -76.05257857      -0.02688363     0.21D-01     0.10D-01     1     0       0.00      0.01    diag
   3      -76.06357159      -0.01099302     0.13D-01     0.34D-02     2     0       0.00      0.01    diag
   4      -76.06375380      -0.00018220     0.12D-02     0.54D-03     3     0       0.00      0.01    diag
   5      -76.06377125      -0.00001745     0.32D-03     0.19D-03     4     0       0.00      0.01    diag
   6      -76.06377221      -0.00000096     0.60D-04     0.45D-04     5     0       0.01      0.02    diag
   7      -76.06377225      -0.00000004     0.11D-04     0.11D-04     6     0       0.00      0.02    diag
   8      -76.06377225      -0.00000000     0.21D-05     0.18D-05     7     0       0.00      0.02    fixocc
   9      -76.06377225      -0.00000000     0.26D-06     0.21D-06     8     0       0.00      0.02    diag
  10      -76.06377225      -0.00000000     0.59D-07     0.47D-07     9     0       0.00      0.02    diag/orth
  11      -76.06377225      -0.00000000     0.11D-07     0.92D-08     0     0       0.00      0.02    diag

 Final occupancy:   3   1   1   0

 !RHF STATE 1.1 Energy                -76.063772254717
  RHF One-electron energy            -123.034320379925
  RHF Two-electron energy              37.787871066157
  RHF Kinetic energy                   75.978711118150
  RHF Nuclear energy                    9.182677059051
  RHF Virial quotient                  -1.001119539083

 !RHF STATE 1.1 Dipole moment           0.00000000     0.00000000    -0.78309856
 Dipole moment /Debye                   0.00000000     0.00000000    -1.99043800

 Orbital energies:

           1.1          2.1          3.1          4.1          5.1
    -20.565252    -1.352060    -0.584987     0.090966     0.146587

           1.2          2.2          3.2
     -0.510314     0.140752     0.463240

           1.3          2.3          3.3
     -0.716675     0.113010     0.257035

           1.4          2.4
      0.451275     1.134605


 HOMO      1.2    -0.510314 =     -13.8864eV
 LUMO      4.1     0.090966 =       2.4753eV
 LUMO-HOMO         0.601281 =      16.3617eV

 Orbitals saved in record  2100.2


 **********************************************************************************************************************************
 DATASETS  * FILE   NREC   LENGTH (MB)   RECORD NAMES
              1      18       28.65       500      610      700      900      950      970     1000      129      960     1100   
                                          VAR    BASINP    GEOM    SYMINP    ZMAT    AOBASIS   BASIS     P2S    ABASIS      S 
                                         1400     1410     1200     1210     1080     1600     1650     1700   
                                           T        V       H0       H01     AOSYM     SMH    MOLCAS    OPER   

              2       4        0.41       700     1000      520     2100   
                                         GEOM     BASIS   MCVARS     RHF  

 PROGRAMS   *        TOTAL    HF-SCF       INT
 CPU TIMES  *         0.45      0.02      0.30
 REAL TIME  *         1.68 SEC
 DISK USED  *        29.20 MB (local),      271.41 MB (total)
 GA USED    *         0.00 MB       (max)       0.00 MB       (current)
 **********************************************************************************************************************************


 PROGRAM * MP2 (Closed-shell)     Authors: C. Hampel, H.-J. Werner, 1991, M. Deegan, P.J. Knowles, 1992


 Convergence thresholds:  THRVAR = 1.00D-16  THRDEN = 1.00D-12

 Number of core orbitals:           1 (   1   0   0   0 )
 Number of closed-shell orbitals:   4 (   2   1   1   0 )
 Number of external orbitals:      63 (  25  12  18   8 )

 Molecular orbitals read from record     2100.2  Type=RHF/CANONICAL  

 Number of N-1 electron functions:               4
 Number of N-2 electron functions:              10
 Number of singly external CSFs:                80
 Number of doubly external CSFs:              8389
 Total number of CSFs:                        8470

 Length of J-op  integral file:               0.00 MB
 Length of K-op  integral file:               0.09 MB

 Integral transformation finished. Total CPU:   0.01 sec, npass=  1  Memory used:   0.08 MW

 Memory needed for MP2:                      0.01 MW

 SCS-MP2 correlation energy:           -0.260280559443   (PS=  1.200000  PT=  0.333333)
 SCS-MP2 total energy:                -76.324052814160


  Reference energy                    -76.063772254717
  MP2 singlet pair energy              -0.167048378400
  MP2 triplet pair energy              -0.096143312192
  MP2 correlation energy               -0.263191690591

 !MP2 total energy                    -76.326963945308

 KEXT needed  1 integral passes. Memory used:   0.08 MW  CPU time:      0.00 sec

 CPHF start vector      0.2 not found

 Starting Coupled-perturbed Hartree-Fock, convergence threshold= 1.0D-06

 ITER   MIC  DIIS      VAR         VARC       CPU
   1     0     1    0.29D-01    0.95D-03     0.00
   2     5     2    0.47D-03    0.82D-04     0.00
   3     4     3    0.87D-05    0.73D-06     0.00
   4     3     4    0.53D-06    0.84D-07     0.00

 CPHF convergence reached in  4 macroiterations and   12 microiterations.   Accuracy: 5.3384D-07

 CPHF solution written to record  4100.2

 Dipole moments (unrelaxed):            0.00000000     0.00000000    -0.76735504
 Orbital relaxation contribution:      -0.00000000    -0.00000000     0.03555080
 !MP2 STATE 1.1 Dipole moment           0.00000000     0.00000000    -0.73180424
 Dipole moment /Debye                   0.00000000     0.00000000    -1.86006085

 CPU-time for density and lagrangian:                  0.00 sec
 CPU-time for coupled-perturbed hartree-fock:          0.00 sec

 MP2 gradient info saved on record         5200.1


 **********************************************************************************************************************************
 DATASETS  * FILE   NREC   LENGTH (MB)   RECORD NAMES
              1      20       28.93       500      610      700      900      950      970     1000      129      960     1100   
                                          VAR    BASINP    GEOM    SYMINP    ZMAT    AOBASIS   BASIS     P2S    ABASIS      S 
                                         1400     1410     1200     1210     1080     1600     1650     1700     1380     5200   
                                           T        V       H0       H01     AOSYM     SMH    MOLCAS    OPER     JKOP      MP2  

              2       5        0.47       700     1000      520     2100     4100   
                                         GEOM     BASIS   MCVARS     RHF     CPHF   

 PROGRAMS   *        TOTAL       MP2    HF-SCF       INT
 CPU TIMES  *         0.49      0.04      0.02      0.30
 REAL TIME  *         1.73 SEC
 DISK USED  *        29.45 MB (local),      273.41 MB (total)
 SF USED    *         0.64 MB
 GA USED    *         0.00 MB       (max)       0.00 MB       (current)
 **********************************************************************************************************************************


 PROGRAM * HESSIAN

 *** Long output written to logfile /gpfs01/work/emmanous/6Frequencies/implementation/MOLPRO/G4-T'/EXAMPLE_H2O/h2o.MP2.def2TZVPPDprime.log ***


 Computing numerical hessian using default procedure for command MP2

 Symmetry elements for unique displacements: X  Y  

 Using AUTO symmetry option

 Running default procedure: HF-SCF000  MP2


 Numerically approximating hessian using central gradient differences

 Task list generated. Total number of displacements:      9

 All   9 tasks completed.  CPU=      3.52 sec, Elapsed=      3.60 sec.

 MP2 hessian saved to record  5300.2

 PROGRAM * FREQUENCIES (Calculation of harmonic vibrational spectra for MP2)


 Permanent Dipole Moment [debye]
   1-  3    0.000000    0.000000   -1.860061

 Dipole Moment Norm    1.8600608 [debye]

 Dipole Moment Derivatives [debye/ang]
              1             2             3             4             5             6             7             8
    1   -3.16224886    0.00000000    0.00000000    1.58115081    0.00000000    0.00000000    1.58115081    0.00000000
    2    0.00000000   -2.53906007    0.00000000    0.00000000    1.26953727    0.24217831    0.00000000    1.26953727
    3    0.00000000    0.00000000   -1.70958032    0.00000000    0.32257952    0.85479206    0.00000000   -0.32257952
              9
    1    0.00000000
    2   -0.24217831
    3    0.85479206

 Force Constants (Second Derivatives of the Energy) in [a.u.]
                             OX1         OY1         OZ1         HX2         HY2     
           OX1          -0.0015867
           OY1           0.0000000   0.6979501
           OZ1           0.0000000   0.0000000   0.4602279
           HX2           0.0007936   0.0000000   0.0000000  -0.0006565
           HY2           0.0000000  -0.3489753   0.2073848   0.0000000   0.3788403
           HZ2           0.0000000   0.2718459  -0.2301148   0.0000000  -0.2396147
           HX3           0.0007936   0.0000000   0.0000000  -0.0001373   0.0000000
           HY3           0.0000000  -0.3489753  -0.2073848   0.0000000  -0.0298647
           HZ3           0.0000000  -0.2718459  -0.2301148   0.0000000   0.0322310
                             HZ2         HX3         HY3         HZ3     
           HZ2           0.2204100
           HX3           0.0000000  -0.0006565
           HY3          -0.0322310  -0.0000000   0.3788403
           HZ3           0.0097057   0.0000000   0.2396147   0.2204100


 Atomic Masses
   1-  3   15.994910    1.007825    1.007825

 Mass weighted Second Derivative Matrix
                             OX1         OY1         OZ1         HX2         HY2     
           OX1          -0.0000992
           OY1           0.0000000   0.0436358
           OZ1           0.0000000   0.0000000   0.0287734
           HX2           0.0001977   0.0000000   0.0000000  -0.0006514
           HY2           0.0000000  -0.0869183   0.0516527   0.0000000   0.3758989
           HZ2           0.0000000   0.0677079  -0.0573140   0.0000000  -0.2377543
           HX3           0.0001977   0.0000000   0.0000000  -0.0001362   0.0000000
           HY3           0.0000000  -0.0869183  -0.0516527   0.0000000  -0.0296328
           HZ3           0.0000000  -0.0677079  -0.0573140   0.0000000   0.0319807
                             HZ2         HX3         HY3         HZ3     
           HZ2           0.2186987
           HX3           0.0000000  -0.0006514
           HY3          -0.0319807  -0.0000000   0.3758989
           HZ3           0.0096303   0.0000000   0.2377543   0.2186987


 Mass Weighted 2nd Derivative Matrix Eigenvalues
   1-  9   -0.000887   -0.000683   -0.000515    0.000000    0.000000    0.000000    0.100695    0.561939    0.599653

 Mass Weighted 2nd Derivative Matrix Eigenvectors
              1             2             3             4             5             6             7             8
    1   -0.33445797    0.00000000    0.00000000    0.00000000    0.94241067   -0.00000019    0.00000000    0.00000000
    2    0.00000000   -0.19787648    0.00000000   -0.00000219    0.00000019    0.94235448    0.00000000    0.00000000
    3    0.00000000    0.00000000    0.00000000    0.94238384    0.00000000    0.00000219   -0.27196031    0.19480834
    4    0.66638497    0.00000000    0.70710678    0.00000000    0.23649750   -0.00000005    0.00000000    0.00000000
    5    0.00000000    0.39384946    0.00000000   -0.00000246    0.00000005    0.23660940    0.41176390    0.57484824
    6    0.00000000    0.57035520    0.00000000    0.23655095    0.00000000    0.00008192    0.54172806   -0.38803912
    7    0.66638497    0.00000000   -0.70710678    0.00000000    0.23649750   -0.00000005    0.00000000    0.00000000
    8    0.00000000    0.39384946    0.00000000    0.00000135    0.00000005    0.23660940   -0.41176390   -0.57484824
    9    0.00000000   -0.57035520    0.00000000    0.23655095    0.00000000   -0.00008081    0.54172806   -0.38803912
              9
    1    0.00000000
    2   -0.26983871
    3    0.00000000
    4    0.00000000
    5    0.53749288
    6   -0.41796524
    7    0.00000000
    8    0.53749288
    9    0.41796524

 Imaginary Vibration  Wavenumber
        Nr             [1/cm] 
        1              153.08
        2              134.34
        3              116.68
        4                0.01

   Low Vibration      Wavenumber
        Nr             [1/cm] 
        1                0.01
        2                0.02

     Vibration        Wavenumber
        Nr             [1/cm] 
        1             1631.20
        2             3853.44
        3             3980.65

 FREQUENCIES * CALCULATION OF NORMAL MODES FOR MP2


 Atomic Coordinates

  Nr  Atom  Charge       X              Y              Z

   1   O     8.00    0.000000000    0.000000000    0.221628984
   2   H     1.00    0.000000000    1.430246175   -0.889884322
   3   H     1.00    0.000000000   -1.430246175   -0.889884322

 Normal Modes

                              1 A1        2 A1        3 B2 
 Wavenumbers [cm-1]         1631.20     3853.44     3980.65
 Intensities [km/mol]         71.79        5.93       74.64
 Intensities [relative]       30.41        2.51       31.62
           OX1             -0.00000     0.00000     0.00000
           OY1              0.00000    -0.00000    -0.06747
           OZ1             -0.06800     0.04871     0.00000
           HX2             -0.00000     0.00000     0.00000
           HY2              0.41016     0.57261     0.53540
           HZ2              0.53962    -0.38653    -0.41634
           HX3              0.00000     0.00000    -0.00000
           HY3             -0.41016    -0.57261     0.53540
           HZ3              0.53962    -0.38653     0.41634


 Normal Modes of imaginary frequencies

                                  1           2           3           4
 Wavenumbers [cm-1]          153.08      134.34      116.68        0.01
 Intensities [km/mol]        236.06       82.46        0.00        0.00
 Intensities [relative]      100.00       34.93        0.00        0.00
           OX1             -0.08363    -0.00000    -0.00000    -0.00000
           OY1              0.00000    -0.04948    -0.00000    -0.00000
           OZ1             -0.00000    -0.00000    -0.00000     0.23563
           HX2              0.66379    -0.00000     0.70436    -0.00000
           HY2             -0.00000     0.39232     0.00000    -0.00000
           HZ2             -0.00000     0.56814     0.00000     0.23563
           HX3              0.66379     0.00000    -0.70436    -0.00000
           HY3             -0.00000     0.39232     0.00000     0.00000
           HZ3              0.00000    -0.56814    -0.00000     0.23563


 Normal Modes of low/zero frequencies

                                  1           2
 Wavenumbers [cm-1]            0.01        0.02
 Intensities [km/mol]          0.00        0.00
 Intensities [relative]        0.00        0.00
           OX1              0.23564    -0.00000
           OY1              0.00000     0.23563
           OZ1              0.00000     0.00000
           HX2              0.23558    -0.00000
           HY2              0.00000     0.23569
           HZ2              0.00000     0.00008
           HX3              0.23558    -0.00000
           HY3              0.00000     0.23569
           HZ3             -0.00000    -0.00008


 Frequencies dumped to record   5400.2

 Zero point energy:  0.02156354 [H]     4732.65 [1/CM]       56.62 [KJ/MOL]
 Frequency information read from record  5400.2

 Recomputing wavefunction at initial geometry


 **********************************************************************************************************************************
 DATASETS  * FILE   NREC   LENGTH (MB)   RECORD NAMES
              1      20       28.93       500      610      700      900      950      970     1000      129      960     1100   
                                          VAR    BASINP    GEOM    SYMINP    ZMAT    AOBASIS   BASIS     P2S    ABASIS      S 
                                         1400     1410     1200     1210     1080     1600     1650     1700     1380     5200   
                                           T        V       H0       H01     AOSYM     SMH    MOLCAS    OPER     JKOP      MP2  

              2       8        0.50       700     1000      520     2100     4100     5300     5450     5400   
                                         GEOM     BASIS   MCVARS     RHF     CPHF     HESS     NMOD     FREQ   

 PROGRAMS   *        TOTAL      FREQ       MP2    HF-SCF       INT
 CPU TIMES  *         4.47      3.97      0.04      0.02      0.30
 REAL TIME  *         7.84 SEC
 DISK USED  *        60.18 MB (local),      499.61 MB (total)
 SF USED    *         0.64 MB
 GA USED    *         0.00 MB       (max)       0.00 MB       (current)
 **********************************************************************************************************************************

 MP2/DEF2-TZVPPD,H=DEF2-TZVPP energy=    -76.326963948844

             MP2          HF-SCF
    -76.32696395    -76.06377225
 **********************************************************************************************************************************
 Molpro calculation terminated
