
 Working directory              : /scratch/emmanous/bh3.CCSDt.def2TZVP.com.15494/molpro.5DQvBk42mj/
 Global scratch directory       : /scratch/emmanous/bh3.CCSDt.def2TZVP.com.15494/molpro.5DQvBk42mj/
 Wavefunction directory         : /home/emmanous/wfu/
 Main file repository           : /scratch/emmanous/bh3.CCSDt.def2TZVP.com.15494/molpro.5DQvBk42mj/

 id        : wis

 Nodes     nprocs
 cff164       8
 GA implementation: MPI file
 GA implementation (serial work in mppx): MPI file

 Using DEFAULT tuning parameter for ncache   :   16384
 Using DEFAULT tuning parameter for mflopdgm :   10000
 Using DEFAULT tuning parameter for mflopdgv :    4000
 Using DEFAULT tuning parameter for mflopmxm :    5000
 Using DEFAULT tuning parameter for mflopmxv :    4000
 Using DEFAULT tuning parameter for mindgm   :       1
 Using DEFAULT tuning parameter for mindgc   :       4
 Using DEFAULT tuning parameter for mindgf   :    5000
 Using DEFAULT tuning parameter for mindgl   :       4
 Using DEFAULT tuning parameter for mindgr   :       1
 Using DEFAULT tuning parameter for mindgv   :      20
 Using DEFAULT tuning parameter for mincuda  :     500
 Using DEFAULT tuning parameter for mxmblk   :      64
 Using DEFAULT tuning parameter for mxmbln   :      64
 Using DEFAULT tuning parameter for nroll    :       2
 Using custom tuning parameter for ngpus     :       0
 Using customized tuning parameters: mindgm=1; mindgv=20; mindgc=4; mindgr=1; noblas=0; minvec=7

 Fortran compiler: integer size=8, double size=8, logical size=8
 default implementation of scratch files=sf  


 Variables initialized (1015), CPU time= 0.00 sec
 gthresh,energy=1d-12,gradient=1d-6,twoint=1d-18,prefac=1d-20
 noorient
 charge=0
 multiplicity=1
 geomtyp=xyz
 geom={
  B          0.0000000000       -0.0000114383        0.0000000000
  H          0.0000000000        1.1887488537        0.0000000000
  H          1.0294693386       -0.5943687076        0.0000000000
  H         -1.0294693386       -0.5943687076        0.0000000000
 }
 MASS,ISO
 MASS,PRINT
 
 basis,def2-TZVP
 hf
 ccsd(t)
 {freq,analytical,print=3;noproject}
 Commands initialized (834), CPU time= 0.01 sec, 672 directives.
 Default parameters read. Elapsed time= 0.07 sec

 Using DEFAULT tuning parameter for mpplat   :       3
 Using DEFAULT tuning parameter for mppspeed :    1600
 Checking input...
 Passed
1


                                         ***  PROGRAM SYSTEM MOLPRO  ***
                                       Copyright, TTI GmbH Stuttgart, 2015
                                    Version 2022.2 linked Thu May  5 23:39:45 2022


 **********************************************************************************************************************************
 LABEL *                                                                                 
  64 bit mpp version                                                                     DATE: 12-Aug-23          TIME: 11:29:10  
 **********************************************************************************************************************************

 SHA1:             518bf5c5e315925380b88506c70af759aa1d1d96
 **********************************************************************************************************************************

 Memory per process:      1500 MW
 Total memory per node:  12000 MW

 GA preallocation disabled
 GA check disabled

 Variable memory set to 1500.0 MW


 THRESHOLDS:

 ZERO    =  1.00D-12  ONEINT  =  1.00D-12  TWOINT  =  1.00D-18  PREFAC  =  1.00D-20  XXXXXX  =  1.00D-09  EORDER  =  1.00D-04
 ENERGY  =  1.00D-12  ETEST   =  0.00D+00  EDENS   =  0.00D+00  THRDEDEF=  1.00D-06  GRADIENT=  1.00D-06  STEP    =  1.00D-03
 ORBITAL =  1.00D-05  CIVEC   =  1.00D-05  COEFF   =  1.00D-04  PRINTCI =  5.00D-02  PUNCHCI =  9.90D+01  OPTGRAD =  3.00D-04
 OPTENERG=  1.00D-06  OPTSTEP =  3.00D-04  THRGRAD =  1.00D-10  COMPRESS=  1.00D-11  VARMIN  =  1.00D-07  VARMAX  =  1.00D-03
 THRDOUB =  0.00D+00  THRDIV  =  1.00D-05  THRRED  =  1.00D-07  THRPSP  =  1.00D+00  THRDC   =  1.00D-10  THRCS   =  1.00D-10
 THRNRM  =  1.00D-08  THREQ   =  0.00D+00  THRDE   =  1.00D+00  THRREF  =  1.00D-05  SPARFAC =  1.00D+00  THRDLP  =  1.00D-07
 THRDIA  =  1.00D-10  THRDLS  =  1.00D-07  THRGPS  =  0.00D+00  THRKEX  =  0.00D+00  THRDIS  =  2.00D-01  THRVAR  =  1.00D-10
 THRLOC  =  1.00D-06  THRGAP  =  1.00D-06  THRLOCT = -1.00D+00  THRGAPT = -1.00D+00  THRORB  =  1.00D-06  THRMLTP =  0.00D+00
 THRCPQCI=  1.00D-10  KEXTA   =  0.00D+00  THRCOARS=  0.00D+00  SYMTOL  =  1.00D-06  GRADTOL =  1.00D-06  THROVL  =  1.00D-08
 THRORTH =  1.00D-08  THRDLOVL= -1.00D+00  GRID    =  1.00D-06  GRIDMAX =  1.00D-03  DTMAX   =  0.00D+00  THROCCDE=  1.00D-01
 THROCCDE=  1.00D-01  THRPRINT=  2.50D-01

 SETTING CHARGE         =      0.0000000D+00                                  
 SETTING MULTIPLICITY   =         1.00000000                                  
 SETTING GEOMTYP        =    XYZ


 Using masses of most abundant isotopes

 **********************************************************************************************************************************


 Atomic masses

 Center       Mass
 B         11.00931
 H          1.00782
 H          1.00782
 H          1.00782
 SETTING BASIS          =    DEF2-TZVP


 Recomputing integrals since basis changed


 Using spherical harmonics

 Library entry B      S def2-TZVP            selected for orbital group  1
 Library entry B      P def2-TZVP            selected for orbital group  1
 Library entry B      D def2-TZVP            selected for orbital group  1
 Library entry B      F def2-TZVP            selected for orbital group  1
 Library entry H      S def2-TZVP            selected for orbital group  2
 Library entry H      P def2-TZVP            selected for orbital group  2


 PROGRAM * SEWARD (Integral evaluation for generally contracted gaussian basis sets)     Author: Roland Lindh, 1990

 Geometry written to block  1 of record 700


 Point group  C2v 



 ATOMIC COORDINATES

 NR  ATOM    CHARGE       X              Y              Z

   1  B       5.00    0.000000000   -0.000021615    0.000000000
   2  H       1.00    0.000000000    2.246409764    0.000000000
   3  H       1.00    1.945415104   -1.123194074    0.000000000
   4  H       1.00   -1.945415104   -1.123194074    0.000000000

 Bond lengths in Bohr (Angstrom)

 1-2  2.246431380  1-3  2.246365130  1-4  2.246365130
     ( 1.188760292)     ( 1.188725234)     ( 1.188725234)

 Bond angles

  2-1-3  119.99970236   2-1-4  119.99970236   3-1-4  120.00059528

 NUCLEAR CHARGE:                    8
 NUMBER OF PRIMITIVE AOS:          75
 NUMBER OF SYMMETRY AOS:           70
 NUMBER OF CONTRACTIONS:           49   (   23A1  +   13B1  +    9B2  +    4A2  )
 NUMBER OF INNER CORE ORBITALS:     0   (    0A1  +    0B1  +    0B2  +    0A2  )
 NUMBER OF OUTER CORE ORBITALS:     1   (    1A1  +    0B1  +    0B2  +    0A2  )
 NUMBER OF VALENCE ORBITALS:        7   (    4A1  +    2B1  +    1B2  +    0A2  )


 NUCLEAR REPULSION ENERGY    7.44842684

 Eigenvalues of metric

         1 0.885E-02 0.963E-02 0.109E-01 0.200E-01 0.382E-01 0.143E+00 0.160E+00 0.195E+00
         2 0.963E-02 0.200E-01 0.160E+00 0.183E+00 0.195E+00 0.349E+00 0.543E+00 0.657E+00
         3 0.142E+00 0.313E+00 0.400E+00 0.473E+00 0.738E+00 0.118E+01 0.134E+01 0.203E+01
         4 0.313E+00 0.473E+00 0.118E+01 0.203E+01


 Contracted 2-electron integrals neglected if value below      1.0D-18
 AO integral compression algorithm  1   Integral accuracy      1.0D-18

     3.146 MB (compressed) written to integral file (100.0%)

     Node minimum: 0.262 MB, node maximum: 0.524 MB


 NUMBER OF SORTED TWO-ELECTRON INTEGRALS:      25750.     BUFFER LENGTH:  32768
 NUMBER OF SEGMENTS:   1  SEGMENT LENGTH:      25750      RECORD LENGTH: 524288

 Memory used in sort:       0.58 MW

 SORT1 READ      260219. AND WROTE       23520. INTEGRALS IN      1 RECORDS. CPU TIME:     0.00 SEC, REAL TIME:     0.01 SEC
 SORT2 READ      192802. AND WROTE      213047. INTEGRALS IN     16 RECORDS. CPU TIME:     0.01 SEC, REAL TIME:     0.00 SEC

 Node minimum:       24751.  Node maximum:       29025. integrals

 OPERATOR DM      FOR CENTER  0  COORDINATES:    0.000000    0.000000    0.000000


 **********************************************************************************************************************************
 DATASETS  * FILE   NREC   LENGTH (MB)   RECORD NAMES
              1      18       28.64       500      610      700      900      950      970     1000      129      960     1100   
                                          VAR    BASINP    GEOM    SYMINP    ZMAT    AOBASIS   BASIS     P2S    ABASIS      S 
                                         1400     1410     1200     1210     1080     1600     1650     1700   
                                           T        V       H0       H01     AOSYM     SMH    MOLCAS    OPER   

 PROGRAMS   *        TOTAL       INT
 CPU TIMES  *         0.41      0.28
 REAL TIME  *         1.32 SEC
 DISK USED  *        28.95 MB (local),      265.38 MB (total)
 GA USED    *         0.00 MB       (max)       0.00 MB       (current)
 **********************************************************************************************************************************


 Program * Restricted Hartree-Fock

 Orbital guess generated from atomic densities.

 Initial occupancy:   3   1   0   0

 NELEC=    8   SYM=1   MS2= 0   THRE=1.0D-12   THRD=1.0D-06   THRG=1.0D-06  HFMA2=F  DIIS_START=2   DIIS_MAX=10   DIIS_INCORE=F

 Level shifts:    0.00 (CLOSED)    0.00 (OPEN)    0.30 (GAP_MIN)

 ITER           ETOT              DE          GRAD        DDIFF     DIIS  NEXP   TIME(IT)  TIME(TOT)  DIAG
   1      -26.39434010     -26.39434010     0.00D+00     0.68D-01     0     0       0.00      0.01    start
   2      -26.39987852      -0.00553842     0.67D-02     0.45D-02     1     0       0.00      0.01    diag
   3      -26.40019624      -0.00031772     0.15D-02     0.13D-02     2     0       0.00      0.01    diag
   4      -26.40021064      -0.00001440     0.30D-03     0.27D-03     3     0       0.00      0.01    diag
   5      -26.40021091      -0.00000027     0.36D-04     0.50D-04     4     0       0.00      0.01    diag
   6      -26.40021092      -0.00000001     0.54D-05     0.11D-04     5     0       0.00      0.01    diag
   7      -26.40021092      -0.00000000     0.74D-06     0.12D-05     6     0       0.00      0.01    diag
   8      -26.40021092      -0.00000000     0.70D-07     0.91D-07     7     0       0.00      0.01    fixocc
   9      -26.40021092      -0.00000000     0.39D-08     0.55D-08     0     0       0.00      0.01    diag

 Final occupancy:   3   1   0   0

 !RHF STATE 1.1 Energy                -26.400210917802
  RHF One-electron energy             -49.071432873165
  RHF Two-electron energy              15.222795116693
  RHF Kinetic energy                   26.390279420618
  RHF Nuclear energy                    7.448426838670
  RHF Virial quotient                  -1.000376331642

 !RHF STATE 1.1 Dipole moment           0.00000000    -0.00002296     0.00000000
 Dipole moment /Debye                   0.00000000    -0.00005836     0.00000000

 Orbital energies:

           1.1          2.1          3.1          4.1          5.1
     -7.610925    -0.704614    -0.498687     0.137965     0.169549

           1.2          2.2          3.2
     -0.498695     0.169548     0.288502

           1.3          2.3
      0.054185     0.284487

           1.4          2.4
      0.527160     1.742671


 HOMO      3.1    -0.498687 =     -13.5700eV
 LUMO      1.3     0.054185 =       1.4745eV
 LUMO-HOMO         0.552872 =      15.0444eV

 Orbitals saved in record  2100.2


 **********************************************************************************************************************************
 DATASETS  * FILE   NREC   LENGTH (MB)   RECORD NAMES
              1      18       28.64       500      610      700      900      950      970     1000      129      960     1100   
                                          VAR    BASINP    GEOM    SYMINP    ZMAT    AOBASIS   BASIS     P2S    ABASIS      S 
                                         1400     1410     1200     1210     1080     1600     1650     1700   
                                           T        V       H0       H01     AOSYM     SMH    MOLCAS    OPER   

              2       4        0.41       700     1000      520     2100   
                                         GEOM     BASIS   MCVARS     RHF  

 PROGRAMS   *        TOTAL    HF-SCF       INT
 CPU TIMES  *         0.42      0.01      0.28
 REAL TIME  *         1.60 SEC
 DISK USED  *        29.15 MB (local),      266.97 MB (total)
 GA USED    *         0.00 MB       (max)       0.00 MB       (current)
 **********************************************************************************************************************************


 PROGRAM * CCSD (Closed-shell coupled cluster)     Authors: C. Hampel, H.-J. Werner, 1991, M. Deegan, P.J. Knowles, 1992


 Convergence thresholds:  THRVAR = 1.00D-16  THRDEN = 1.00D-12

 CCSD(T)     terms to be evaluated (factor= 1.000)


 Using ITF CCSD(T) gradient implementation

 Number of core orbitals:           1 (   1   0   0   0 )
 Number of closed-shell orbitals:   3 (   2   1   0   0 )
 Number of external orbitals:      45 (  20  12   9   4 )

 Molecular orbitals read from record     2100.2  Type=RHF/CANONICAL  

 Integral transformation finished. Total CPU:   0.01 sec, npass=  1  Memory used:   0.10 MW
 Time for re-packing tensors:             0.00 sec
  Reference energy                    -26.400210917802

  MP2 correlation energy               -0.105948044865
  MP2 total energy                    -26.506158962667

 ITER.      SQ.NORM     CORR.ENERGY   TOTAL ENERGY   ENERGY CHANGE        DEN1      VAR(S)    VAR(P)  DIIS     TIME
   1      1.05269279    -0.12744272   -26.52765364    -0.02149468    -0.01602200  2.11e-04  1.39e-03  1  1     0.01
   2      1.05830922    -0.12895449   -26.52916541    -0.00151177    -0.00475208  1.27e-05  1.92e-04  2  2     0.01
   3      1.06066082    -0.12911928   -26.52933020    -0.00016479    -0.00168127  1.54e-07  1.80e-05  3  3     0.02
   4      1.06139337    -0.12909900   -26.52930992     0.00002028    -0.00050354  1.49e-08  1.50e-06  4  4     0.02
   5      1.06159755    -0.12908743   -26.52929834     0.00001157    -0.00013774  5.20e-10  7.94e-08  5  5     0.03
   6      1.06163729    -0.12908370   -26.52929462     0.00000373    -0.00003080  3.71e-10  5.20e-09  6  0     0.03
   7      1.06164207    -0.12908270   -26.52929362     0.00000100    -0.00000570  1.47e-12  3.04e-10  6  1     0.04
   8      1.06164294    -0.12908254   -26.52929346     0.00000016    -0.00000106  1.70e-13  2.83e-11  6  2     0.04
   9      1.06164312    -0.12908251   -26.52929343     0.00000003    -0.00000022  8.38e-14  2.08e-12  6  3     0.05
  10      1.06164316    -0.12908250   -26.52929342     0.00000000    -0.00000004  1.47e-15  9.25e-14  6  4     0.05
  11      1.06164317    -0.12908250   -26.52929342     0.00000000    -0.00000001  1.13e-16  4.80e-15  6  5     0.06
  12      1.06164318    -0.12908250   -26.52929342     0.00000000    -0.00000000  2.56e-18  3.65e-16  6  0     0.06
  13      1.06164318    -0.12908250   -26.52929342     0.00000000    -0.00000000  3.37e-19  2.80e-17  6  1     0.07
  14      1.06164318    -0.12908250   -26.52929342     0.00000000    -0.00000000  1.87e-20  1.23e-18  6  2     0.07
  15      1.06164318    -0.12908250   -26.52929342     0.00000000    -0.00000000  1.17e-21  5.72e-20  6  3     0.08
  16      1.06164318    -0.12908250   -26.52929342     0.00000000    -0.00000000  1.05e-22  1.87e-21           0.08

 Norm of t1 vector:      0.02374350     S-energy:      0.00000000   T1 diagnostic:  0.00685416

 Time per iteration:                      0.00 sec

 RESULTS
 =======

  Reference energy                    -26.400210917802
  CCSD correlation energy              -0.129082501810
  CCSD total energy                   -26.529293419612

  Triples (T) contribution             -0.002306320018
  Total correlation energy             -0.131388821828
  CCSD[T] total energy                -26.531654209279
 !CCSD(T) total energy                -26.531599739630

 Starting CP-CCSD(T) iterations.   Author: W. Gyorffy (2015)

 ITER.      NRM1           NRM2      VAR(S)+VAR(P)   DIIS    TIME
   1     0.00034244     0.13414061     3.16e-04      1  1    0.01
   2     0.00033803     0.13562141     1.35e-05      2  2    0.02
   3     0.00034004     0.13611692     1.17e-06      3  3    0.02
   4     0.00034257     0.13629787     7.45e-08      4  4    0.02
   5     0.00034407     0.13633058     8.17e-09      5  5    0.03
   6     0.00034462     0.13632826     6.05e-10      6  0    0.03
   7     0.00034468     0.13632457     2.94e-11      6  1    0.04
   8     0.00034467     0.13632360     1.59e-12      6  2    0.04
   9     0.00034466     0.13632342     8.75e-14      6  3    0.05
  10     0.00034466     0.13632339     4.42e-15      6  4    0.05
  11     0.00034466     0.13632338     2.94e-16      6  5    0.06
  12     0.00034466     0.13632338     1.86e-17      6  0    0.07
  13     0.00034466     0.13632338     2.07e-18      6  1    0.07
  14     0.00034466     0.13632338     3.25e-19      6  2    0.08
  15     0.00034466     0.13632338     4.26e-20      6  3    0.08
  16     0.00034466     0.13632338     4.46e-21              0.09


 Time per iteration:                      0.01 sec

 CPHF start vector      0.2 not found

 Starting Coupled-perturbed Hartree-Fock, convergence threshold= 1.0D-06

 ITER   MIC  DIIS      VAR         VARC       CPU
   1     0     1    0.98D-03    0.91D-03     0.00
   2     2     2    0.80D-04    0.18D-04     0.00
   3     3     3    0.99D-06    0.46D-06     0.00

 CPHF convergence reached in  3 macroiterations and    5 microiterations.   Accuracy: 9.8728D-07

 CPHF solution written to record  8500.2

 Dipole moments (unrelaxed):            0.00000000    -0.00001895     0.00000000
 Orbital relaxation contribution:      -0.00000000    -0.00000011    -0.00000000
 !CCSD(T) STATE 1.1 Dipole moment       0.00000000    -0.00001906     0.00000000
 Dipole moment /Debye                   0.00000000    -0.00004843     0.00000000

 CPU-time for coupled-perturbed hartree-fock:          0.00 sec

 Number of N-1 electron functions:               3
 Number of N-2 electron functions:               6
 Number of singly external CSFs:                52
 Number of doubly external CSFs:              2774
 Total number of CSFs:                        2827

 CCSD(T) gradient info saved on record        55555.1




 **********************************************************************************************************************************
 DATASETS  * FILE   NREC   LENGTH (MB)   RECORD NAMES
              1      21       29.63       500      610      700      900      950      970     1000      129      960     1100   
                                          VAR    BASINP    GEOM    SYMINP    ZMAT    AOBASIS   BASIS     P2S    ABASIS      S 
                                         1400     1410     1200     1210     1080     1600     1650     1700     1380     3791   
                                           T        V       H0       H01     AOSYM     SMH    MOLCAS    OPER     JKOP   
                                        55555   
                                        CCSD(T)    

              2       5        0.44       700     1000      520     2100     8500   
                                         GEOM     BASIS   MCVARS     RHF     CPHF   

 PROGRAMS   *        TOTAL   CCSD(T)    HF-SCF       INT
 CPU TIMES  *         0.70      0.28      0.01      0.28
 REAL TIME  *         1.92 SEC
 DISK USED  *        30.12 MB (local),      274.73 MB (total)
 SF USED    *         7.24 MB
 GA USED    *         0.00 MB       (max)       0.00 MB       (current)
 **********************************************************************************************************************************


 PROGRAM * HESSIAN

 *** Long output written to logfile /gpfs01/work/emmanous/6Frequencies/implementation/MOLPRO/G4-T'/EXAMPLE_BH3/bh3.CCSDt.def2TZVP.log ***


 Computing numerical hessian using default procedure for command CCSD(T)

 Symmetry elements for unique displacements: X  Z  

 Using AUTO symmetry option

 Running default procedure: HF-SCF000  CCSD(T)


 Numerically approximating hessian using central gradient differences

 Task list generated. Total number of displacements:     13

 All  13 tasks completed.  CPU=     15.42 sec, Elapsed=     15.52 sec.

 CCSD(T) hessian saved to record  5300.2

 PROGRAM * FREQUENCIES (Calculation of harmonic vibrational spectra for CCSD(T))


 Permanent Dipole Moment [debye]
   1-  3    0.000000   -0.000048    0.000000

 Dipole Moment Norm    0.0000484 [debye]

 Dipole Moment Derivatives [debye/ang]
              1             2             3             4             5             6             7             8
    1    2.54079577    0.00000000    0.00000000   -0.44954208    0.00000000    0.00000000   -1.04562142    0.34416341
    2    0.00000000    2.54088932    0.00000000    0.00000000   -1.24438398    0.00000000    0.34415383   -0.64824144
    3    0.00000000    0.00000000    2.14366201    0.00000000    0.00000000   -0.71461686    0.00000000    0.00000000
              9            10            11            12
    1    0.00000000   -1.04562142   -0.34416341    0.00000000
    2    0.00000000   -0.34415383   -0.64824144    0.00000000
    3   -0.71460362    0.00000000    0.00000000   -0.71460362

 Force Constants (Second Derivatives of the Energy) in [a.u.]
                             BX1         BY1         BZ1         HX2         HY2     
           BX1           0.4244310
           BY1           0.0000000   0.4243764
           BZ1           0.0000000   0.0000000   0.1193076
           HX2          -0.0399383   0.0000000   0.0000000   0.0326816
           HY2           0.0000000  -0.2429931   0.0000000   0.0000000   0.2541620
           HZ2           0.0000000   0.0000000  -0.0397711   0.0000000   0.0000000
           HX3          -0.1922493   0.0879429   0.0000000   0.0036303  -0.0013294
           HY3           0.0879412  -0.0906948   0.0000000   0.0172861  -0.0055841
           HZ3           0.0000000   0.0000000  -0.0397651   0.0000000   0.0000000
           HX4          -0.1922493  -0.0879429   0.0000000   0.0036303   0.0013294
           HY4          -0.0879412  -0.0906948   0.0000000  -0.0172861  -0.0055841
           HZ4           0.0000000   0.0000000  -0.0397651   0.0000000   0.0000000
                             HZ2         HX3         HY3         HZ3         HX4     
           HZ2           0.0126532
           HX3           0.0000000   0.1988113
           HY3           0.0000000  -0.0959207   0.0880439
           HZ3           0.0135579   0.0000000   0.0000000   0.0126468
           HX4           0.0000000  -0.0101913  -0.0093075   0.0000000   0.1988113
           HY4           0.0000000   0.0093075   0.0082378   0.0000000   0.0959207
           HZ4           0.0135579   0.0000000   0.0000000   0.0135583  -0.0000000
                             HY4         HZ4     
           HY4           0.0880439
           HZ4           0.0000000   0.0126468


 Atomic Masses
   1-  4   11.009310    1.007825    1.007825    1.007825

 Mass weighted Second Derivative Matrix
                             BX1         BY1         BZ1         HX2         HY2     
           BX1           0.0385520
           BY1           0.0000000   0.0385470
           BZ1           0.0000000   0.0000000   0.0108370
           HX2          -0.0119899   0.0000000   0.0000000   0.0324279
           HY2           0.0000000  -0.0729493   0.0000000   0.0000000   0.2521887
           HZ2           0.0000000   0.0000000  -0.0119397   0.0000000   0.0000000
           HX3          -0.0577155   0.0264015   0.0000000   0.0036021  -0.0013191
           HY3           0.0264010  -0.0272276   0.0000000   0.0171519  -0.0055408
           HZ3           0.0000000   0.0000000  -0.0119379   0.0000000   0.0000000
           HX4          -0.0577155  -0.0264015   0.0000000   0.0036021   0.0013191
           HY4          -0.0264010  -0.0272276   0.0000000  -0.0171519  -0.0055408
           HZ4           0.0000000   0.0000000  -0.0119379   0.0000000   0.0000000
                             HZ2         HX3         HY3         HZ3         HX4     
           HZ2           0.0125550
           HX3           0.0000000   0.1972677
           HY3           0.0000000  -0.0951760   0.0873603
           HZ3           0.0134526   0.0000000   0.0000000   0.0125486
           HX4           0.0000000  -0.0101121  -0.0092352   0.0000000   0.1972677
           HY4           0.0000000   0.0092352   0.0081738   0.0000000   0.0951760
           HZ4           0.0134526   0.0000000   0.0000000   0.0134530  -0.0000000
                             HY4         HZ4     
           HY4           0.0873603
           HZ4           0.0000000   0.0125486


 Mass Weighted 2nd Derivative Matrix Eigenvalues
   1- 10   -0.000904   -0.000900   -0.000893    0.000000    0.000000    0.000000    0.050293    0.054923    0.054933    0.255464
  11- 12    0.283263    0.283283

 Mass Weighted 2nd Derivative Matrix Eigenvectors
              1             2             3             4             5             6             7             8
    1    0.00000000    0.00000000   -0.00063098    0.00000000    0.00000000    0.88574916    0.00000000    0.00000000
    2    0.00000000    0.00000000    0.00000000    0.00000098    0.88575027    0.00000000    0.00000000   -0.31377357
    3    0.00000000    0.00002795    0.00000000    0.88573370   -0.00000098    0.00000000   -0.46419373    0.00000000
    4    0.00000000    0.00000000    0.57703332    0.00000000    0.00000000    0.26841881    0.00000000    0.00000000
    5    0.00000000    0.00000000    0.00000000    0.00000030    0.26799187    0.00000000    0.00000000   -0.07973639
    6    0.00000000    0.81646474    0.00000000    0.26800306   -0.00000030    0.00000000    0.51142907    0.00000000
    7    0.00000000    0.00000000   -0.28889478    0.00000000   -0.00000577    0.26776806    0.00000000    0.36843833
    8    0.00000000    0.00000000   -0.50005588    0.00000030    0.26798024   -0.00038584    0.00000000    0.55843292
    9    0.70710678   -0.40828013    0.00000000    0.26800203   -0.00000030    0.00000000    0.51135335    0.00000000
   10    0.00000000    0.00000000   -0.28889478    0.00000000    0.00000577    0.26776806    0.00000000   -0.36843833
   11    0.00000000    0.00000000    0.50005588    0.00000030    0.26798024    0.00038583    0.00000000    0.55843292
   12   -0.70710678   -0.40828013    0.00000000    0.26800203   -0.00000030    0.00000000    0.51135335    0.00000000
              9            10            11            12
    1   -0.31376477    0.00000000    0.00000000   -0.34205218
    2    0.00000000   -0.00017636   -0.34204178    0.00000000
    3    0.00000000    0.00000000    0.00000000    0.00000000
    4    0.77123481    0.00000000    0.00000000   -0.01344435
    5    0.00000000    0.57773664    0.76683951    0.00000000
    6    0.00000000    0.00000000    0.00000000    0.00000000
    7    0.13292702    0.49983252   -0.33826122    0.57198818
    8    0.36838115   -0.28857863    0.18182859   -0.33799304
    9    0.00000000    0.00000000    0.00000000    0.00000000
   10    0.13292702   -0.49983252    0.33826122    0.57198818
   11   -0.36838115   -0.28857863    0.18182859    0.33799304
   12    0.00000000    0.00000000    0.00000000    0.00000000

 Imaginary Vibration  Wavenumber
        Nr             [1/cm] 
        1              154.59
        2              154.18
        3              153.65
        4                0.03
        5                0.02

   Low Vibration      Wavenumber
        Nr             [1/cm] 
        1                0.12

     Vibration        Wavenumber
        Nr             [1/cm] 
        1             1152.81
        2             1204.70
        3             1204.81
        4             2598.18
        5             2735.89
        6             2735.99

 FREQUENCIES * CALCULATION OF NORMAL MODES FOR CCSD(T)


 Atomic Coordinates

  Nr  Atom  Charge       X              Y              Z

   1   B     5.00    0.000000000   -0.000021615    0.000000000
   2   H     1.00    0.000000000    2.246409764    0.000000000
   3   H     1.00    1.945415104   -1.123194074    0.000000000
   4   H     1.00   -1.945415104   -1.123194074    0.000000000

 Normal Modes

                              1 B1        2 A1        3 B2        4 A1        5 A1 
 Wavenumbers [cm-1]         1152.81     1204.70     1204.81     2598.18     2735.89
 Intensities [km/mol]         81.87       15.72       15.72        0.00      119.15
 Intensities [relative]       68.71       13.20       13.19        0.00      100.00
           BX1             -0.00000    -0.00000    -0.09456    -0.00000     0.00000
           BY1             -0.00000    -0.09457     0.00000    -0.00005    -0.10309
           BZ1             -0.13990     0.00000     0.00000    -0.00000    -0.00000
           HX2              0.00000     0.00000     0.76823    -0.00000     0.00000
           HY2             -0.00000    -0.07943     0.00000     0.57549     0.76386
           HZ2              0.50944    -0.00000    -0.00000     0.00000     0.00000
           HX3              0.00000     0.36701     0.13241     0.49789    -0.33695
           HY3              0.00000     0.55626     0.36695    -0.28746     0.18112
           HZ3              0.50936    -0.00000    -0.00000     0.00000     0.00000
           HX4             -0.00000    -0.36701     0.13241    -0.49789     0.33695
           HY4              0.00000     0.55626    -0.36695    -0.28746     0.18112
           HZ4              0.50936    -0.00000    -0.00000     0.00000     0.00000

                              6 B2 
 Wavenumbers [cm-1]         2735.99
 Intensities [km/mol]        119.15
 Intensities [relative]      100.00
           BX1             -0.10309
           BY1             -0.00000
           BZ1              0.00000
           HX2             -0.01339
           HY2              0.00000
           HZ2              0.00000
           HX3              0.56976
           HY3             -0.33668
           HZ3              0.00000
           HX4              0.56976
           HY4              0.33668
           HZ4              0.00000


 Normal Modes of imaginary frequencies

                                  1           2           3           4           5
 Wavenumbers [cm-1]          154.59      154.18      153.65        0.03        0.02
 Intensities [km/mol]          0.00        0.00        0.00        0.00        0.00
 Intensities [relative]        0.00        0.00        0.00        0.00        0.00
           BX1             -0.00000     0.00000    -0.00019    -0.00000     0.00000
           BY1             -0.00000     0.00000    -0.00000     0.00000     0.26695
           BZ1             -0.00000     0.00001     0.00000     0.26695    -0.00000
           HX2              0.00000    -0.00000     0.57479    -0.00000     0.00000
           HY2             -0.00000     0.00000    -0.00000     0.00000     0.26695
           HZ2             -0.00000     0.81329     0.00000     0.26696    -0.00000
           HX3             -0.00000     0.00000    -0.28777    -0.00000    -0.00001
           HY3             -0.00000     0.00000    -0.49811     0.00000     0.26694
           HZ3              0.70436    -0.40669    -0.00000     0.26696    -0.00000
           HX4             -0.00000     0.00000    -0.28777    -0.00000     0.00001
           HY4              0.00000    -0.00000     0.49811     0.00000     0.26694
           HZ4             -0.70436    -0.40669     0.00000     0.26696    -0.00000


 Normal Modes of low/zero frequencies

                                  1
 Wavenumbers [cm-1]            0.12
 Intensities [km/mol]          0.00
 Intensities [relative]        0.00
           BX1              0.26695
           BY1             -0.00000
           BZ1              0.00000
           HX2              0.26737
           HY2             -0.00000
           HZ2              0.00000
           HX3              0.26673
           HY3             -0.00038
           HZ3              0.00000
           HX4              0.26673
           HY4              0.00038
           HZ4              0.00000


 Frequencies dumped to record   5400.2

 Zero point energy:  0.02650054 [H]     5816.20 [1/CM]       69.58 [KJ/MOL]
 Frequency information read from record  5400.2

 Recomputing wavefunction at initial geometry


 **********************************************************************************************************************************
 DATASETS  * FILE   NREC   LENGTH (MB)   RECORD NAMES
              1      21       29.63       500      610      700      900      950      970     1000      129      960     1100   
                                          VAR    BASINP    GEOM    SYMINP    ZMAT    AOBASIS   BASIS     P2S    ABASIS      S 
                                         1400     1410     1200     1210     1080     1600     1650     1700     1380     3791   
                                           T        V       H0       H01     AOSYM     SMH    MOLCAS    OPER     JKOP   
                                        55555   
                                        CCSD(T)    

              2       8        0.46       700     1000      520     2100     8500     5300     5450     5400   
                                         GEOM     BASIS   MCVARS     RHF     CPHF     HESS     NMOD     FREQ   

 PROGRAMS   *        TOTAL      FREQ   CCSD(T)    HF-SCF       INT
 CPU TIMES  *        12.57     11.87      0.28      0.01      0.28
 REAL TIME  *        20.56 SEC
 DISK USED  *        59.26 MB (local),      504.50 MB (total)
 SF USED    *         7.24 MB
 GA USED    *         0.00 MB       (max)       0.00 MB       (current)
 **********************************************************************************************************************************

 CCSD(T)/DEF2-TZVP energy=    -26.531599739634

         CCSD(T)          HF-SCF
    -26.53159974    -26.40021092
 **********************************************************************************************************************************
 Molpro calculation terminated
