
 Working directory              : /scratch/emmanous/bh3.HF.def2QZVPPDprime.com.14795/molpro.iDhg7ZNnED/
 Global scratch directory       : /scratch/emmanous/bh3.HF.def2QZVPPDprime.com.14795/molpro.iDhg7ZNnED/
 Wavefunction directory         : /home/emmanous/wfu/
 Main file repository           : /scratch/emmanous/bh3.HF.def2QZVPPDprime.com.14795/molpro.iDhg7ZNnED/

 id        : wis

 Nodes     nprocs
 cff164       8
 GA implementation: MPI file
 GA implementation (serial work in mppx): MPI file

 Using DEFAULT tuning parameter for ncache   :   16384
 Using DEFAULT tuning parameter for mflopdgm :   10000
 Using DEFAULT tuning parameter for mflopdgv :    4000
 Using DEFAULT tuning parameter for mflopmxm :    5000
 Using DEFAULT tuning parameter for mflopmxv :    4000
 Using DEFAULT tuning parameter for mindgm   :       1
 Using DEFAULT tuning parameter for mindgc   :       4
 Using DEFAULT tuning parameter for mindgf   :    5000
 Using DEFAULT tuning parameter for mindgl   :       4
 Using DEFAULT tuning parameter for mindgr   :       1
 Using DEFAULT tuning parameter for mindgv   :      20
 Using DEFAULT tuning parameter for mincuda  :     500
 Using DEFAULT tuning parameter for mxmblk   :      64
 Using DEFAULT tuning parameter for mxmbln   :      64
 Using DEFAULT tuning parameter for nroll    :       2
 Using custom tuning parameter for ngpus     :       0
 Using customized tuning parameters: mindgm=1; mindgv=20; mindgc=4; mindgr=1; noblas=0; minvec=7

 Fortran compiler: integer size=8, double size=8, logical size=8
 default implementation of scratch files=sf  


 Variables initialized (1015), CPU time= 0.01 sec
 gthresh,energy=1d-12,gradient=1d-6,twoint=1d-18,prefac=1d-20
 noorient
 charge=0
 multiplicity=1
 geomtyp=xyz
 geom={
  B          0.0000000000       -0.0000114383        0.0000000000
  H          0.0000000000        1.1887488537        0.0000000000
  H          1.0294693386       -0.5943687076        0.0000000000
  H         -1.0294693386       -0.5943687076        0.0000000000
 }
 MASS,ISO
 MASS,PRINT
 
 basis,def2-QZVPPD,h=def2-QZVPP
 hf
 {freq,analytic,print=3;noproject}
 
 Commands initialized (834), CPU time= 0.01 sec, 672 directives.
 Default parameters read. Elapsed time= 0.08 sec

 Using DEFAULT tuning parameter for mpplat   :       3
 Using DEFAULT tuning parameter for mppspeed :    1600
 Checking input...
 Passed
1


                                         ***  PROGRAM SYSTEM MOLPRO  ***
                                       Copyright, TTI GmbH Stuttgart, 2015
                                    Version 2022.2 linked Thu May  5 23:39:45 2022


 **********************************************************************************************************************************
 LABEL *                                                                                 
  64 bit mpp version                                                                     DATE: 12-Aug-23          TIME: 11:28:02  
 **********************************************************************************************************************************

 SHA1:             518bf5c5e315925380b88506c70af759aa1d1d96
 **********************************************************************************************************************************

 Memory per process:      1500 MW
 Total memory per node:  12000 MW

 GA preallocation disabled
 GA check disabled

 Variable memory set to 1500.0 MW


 THRESHOLDS:

 ZERO    =  1.00D-12  ONEINT  =  1.00D-12  TWOINT  =  1.00D-18  PREFAC  =  1.00D-20  XXXXXX  =  1.00D-09  EORDER  =  1.00D-04
 ENERGY  =  1.00D-12  ETEST   =  0.00D+00  EDENS   =  0.00D+00  THRDEDEF=  1.00D-06  GRADIENT=  1.00D-06  STEP    =  1.00D-03
 ORBITAL =  1.00D-05  CIVEC   =  1.00D-05  COEFF   =  1.00D-04  PRINTCI =  5.00D-02  PUNCHCI =  9.90D+01  OPTGRAD =  3.00D-04
 OPTENERG=  1.00D-06  OPTSTEP =  3.00D-04  THRGRAD =  1.00D-10  COMPRESS=  1.00D-11  VARMIN  =  1.00D-07  VARMAX  =  1.00D-03
 THRDOUB =  0.00D+00  THRDIV  =  1.00D-05  THRRED  =  1.00D-07  THRPSP  =  1.00D+00  THRDC   =  1.00D-10  THRCS   =  1.00D-10
 THRNRM  =  1.00D-08  THREQ   =  0.00D+00  THRDE   =  1.00D+00  THRREF  =  1.00D-05  SPARFAC =  1.00D+00  THRDLP  =  1.00D-07
 THRDIA  =  1.00D-10  THRDLS  =  1.00D-07  THRGPS  =  0.00D+00  THRKEX  =  0.00D+00  THRDIS  =  2.00D-01  THRVAR  =  1.00D-10
 THRLOC  =  1.00D-06  THRGAP  =  1.00D-06  THRLOCT = -1.00D+00  THRGAPT = -1.00D+00  THRORB  =  1.00D-06  THRMLTP =  0.00D+00
 THRCPQCI=  1.00D-10  KEXTA   =  0.00D+00  THRCOARS=  0.00D+00  SYMTOL  =  1.00D-06  GRADTOL =  1.00D-06  THROVL  =  1.00D-08
 THRORTH =  1.00D-08  THRDLOVL= -1.00D+00  GRID    =  1.00D-06  GRIDMAX =  1.00D-03  DTMAX   =  0.00D+00  THROCCDE=  1.00D-01
 THROCCDE=  1.00D-01  THRPRINT=  2.50D-01

 SETTING CHARGE         =      0.0000000D+00                                  
 SETTING MULTIPLICITY   =         1.00000000                                  
 SETTING GEOMTYP        =    XYZ


 Using masses of most abundant isotopes

 **********************************************************************************************************************************


 Atomic masses

 Center       Mass
 B         11.00931
 H          1.00782
 H          1.00782
 H          1.00782
 SETTING BASIS          =    DEF2-QZVPPD,H=DEF2-QZVPP


 Recomputing integrals since basis changed


 Using spherical harmonics

 Library entry B      S def2-QZVPPD          selected for orbital group  1
 Library entry B      P def2-QZVPPD          selected for orbital group  1
 Library entry B      D def2-QZVPPD          selected for orbital group  1
 Library entry B      F def2-QZVPPD          selected for orbital group  1
 Library entry B      G def2-QZVPPD          selected for orbital group  1
 Library entry H      S def2-QZVPP           selected for orbital group  2
 Library entry H      P def2-QZVPP           selected for orbital group  2
 Library entry H      D def2-QZVPP           selected for orbital group  2
 Library entry H      F def2-QZVPP           selected for orbital group  2


 PROGRAM * SEWARD (Integral evaluation for generally contracted gaussian basis sets)     Author: Roland Lindh, 1990

 Geometry written to block  1 of record 700


 Point group  C2v 



 ATOMIC COORDINATES

 NR  ATOM    CHARGE       X              Y              Z

   1  B       5.00    0.000000000   -0.000021615    0.000000000
   2  H       1.00    0.000000000    2.246409764    0.000000000
   3  H       1.00    1.945415104   -1.123194074    0.000000000
   4  H       1.00   -1.945415104   -1.123194074    0.000000000

 Bond lengths in Bohr (Angstrom)

 1-2  2.246431380  1-3  2.246365130  1-4  2.246365130
     ( 1.188760292)     ( 1.188725234)     ( 1.188725234)

 Bond angles

  2-1-3  119.99970236   2-1-4  119.99970236   3-1-4  120.00059528

 NUCLEAR CHARGE:                    8
 NUMBER OF PRIMITIVE AOS:         213
 NUMBER OF SYMMETRY AOS:          182
 NUMBER OF CONTRACTIONS:          153   (   60A1  +   41B1  +   31B2  +   21A2  )
 NUMBER OF INNER CORE ORBITALS:     0   (    0A1  +    0B1  +    0B2  +    0A2  )
 NUMBER OF OUTER CORE ORBITALS:     1   (    1A1  +    0B1  +    0B2  +    0A2  )
 NUMBER OF VALENCE ORBITALS:        7   (    4A1  +    2B1  +    1B2  +    0A2  )


 NUCLEAR REPULSION ENERGY    7.44842684

 Eigenvalues of metric

         1 0.155E-03 0.290E-03 0.121E-02 0.215E-02 0.238E-02 0.340E-02 0.402E-02 0.726E-02
         2 0.290E-03 0.215E-02 0.340E-02 0.738E-02 0.104E-01 0.188E-01 0.255E-01 0.630E-01
         3 0.103E-01 0.120E-01 0.337E-01 0.421E-01 0.811E-01 0.124E+00 0.178E+00 0.224E+00
         4 0.120E-01 0.421E-01 0.124E+00 0.135E+00 0.178E+00 0.237E+00 0.399E+00 0.483E+00


 Contracted 2-electron integrals neglected if value below      1.0D-18
 AO integral compression algorithm  1   Integral accuracy      1.0D-18

     184.025 MB (compressed) written to integral file (100.0%)

     Node minimum: 20.447 MB, node maximum: 26.477 MB


 NUMBER OF SORTED TWO-ELECTRON INTEGRALS:    2234768.     BUFFER LENGTH:  32768
 NUMBER OF SEGMENTS:   1  SEGMENT LENGTH:    2234768      RECORD LENGTH: 524288

 Memory used in sort:       2.79 MW

 SORT1 READ    22771097. AND WROTE     2166750. INTEGRALS IN      7 RECORDS. CPU TIME:     0.33 SEC, REAL TIME:     0.36 SEC
 SORT2 READ    17392405. AND WROTE    17940577. INTEGRALS IN    712 RECORDS. CPU TIME:     0.05 SEC, REAL TIME:     0.07 SEC

 Node minimum:     2234768.  Node maximum:     2250179. integrals

 OPERATOR DM      FOR CENTER  0  COORDINATES:    0.000000    0.000000    0.000000


 **********************************************************************************************************************************
 DATASETS  * FILE   NREC   LENGTH (MB)   RECORD NAMES
              1      18       28.88       500      610      700      900      950      970     1000      129      960     1100   
                                          VAR    BASINP    GEOM    SYMINP    ZMAT    AOBASIS   BASIS     P2S    ABASIS      S 
                                         1400     1410     1200     1210     1080     1600     1650     1700   
                                           T        V       H0       H01     AOSYM     SMH    MOLCAS    OPER   

 PROGRAMS   *        TOTAL       INT
 CPU TIMES  *         1.07      0.93
 REAL TIME  *         2.02 SEC
 DISK USED  *        29.23 MB (local),      606.19 MB (total)
 GA USED    *         0.00 MB       (max)       0.00 MB       (current)
 **********************************************************************************************************************************


 Program * Restricted Hartree-Fock

 Orbital guess generated from atomic densities.

 Initial occupancy:   3   1   0   0

 NELEC=    8   SYM=1   MS2= 0   THRE=1.0D-12   THRD=1.0D-06   THRG=1.0D-06  HFMA2=F  DIIS_START=2   DIIS_MAX=10   DIIS_INCORE=F

 Level shifts:    0.00 (CLOSED)    0.00 (OPEN)    0.30 (GAP_MIN)

 ITER           ETOT              DE          GRAD        DDIFF     DIIS  NEXP   TIME(IT)  TIME(TOT)  DIAG
   1      -26.39644836     -26.39644836     0.00D+00     0.19D-01     0     0       0.00      0.01    start
   2      -26.40203834      -0.00558998     0.40D-02     0.14D-02     1     0       0.01      0.02    diag
   3      -26.40236153      -0.00032319     0.93D-03     0.44D-03     2     0       0.00      0.02    diag
   4      -26.40237577      -0.00001423     0.18D-03     0.11D-03     3     0       0.01      0.03    diag
   5      -26.40237609      -0.00000032     0.23D-04     0.22D-04     4     0       0.01      0.04    diag
   6      -26.40237609      -0.00000001     0.33D-05     0.29D-05     5     0       0.00      0.04    diag
   7      -26.40237609      -0.00000000     0.49D-06     0.61D-06     6     0       0.01      0.05    diag
   8      -26.40237609      -0.00000000     0.50D-07     0.52D-07     7     0       0.01      0.06    fixocc
   9      -26.40237609       0.00000000     0.41D-08     0.74D-08     8     0       0.00      0.06    diag
  10      -26.40237609      -0.00000000     0.21D-09     0.23D-09     0     0       0.01      0.07    diag/orth

 Final occupancy:   3   1   0   0

 !RHF STATE 1.1 Energy                -26.402376092699
  RHF One-electron energy             -49.075303893882
  RHF Two-electron energy              15.224500962513
  RHF Kinetic energy                   26.394018767737
  RHF Nuclear energy                    7.448426838670
  RHF Virial quotient                  -1.000316637077

 !RHF STATE 1.1 Dipole moment           0.00000000    -0.00002306     0.00000000
 Dipole moment /Debye                   0.00000000    -0.00005861     0.00000000

 Orbital energies:

           1.1          2.1          3.1          4.1          5.1
     -7.610790    -0.704739    -0.498807     0.055055     0.108115

           1.2          2.2          3.2
     -0.498815     0.108114     0.146112

           1.3          2.3
      0.046559     0.156080

           1.4          2.4
      0.156080     0.493259


 HOMO      3.1    -0.498807 =     -13.5732eV
 LUMO      1.3     0.046559 =       1.2669eV
 LUMO-HOMO         0.545366 =      14.8402eV

 Orbitals saved in record  2100.2


 **********************************************************************************************************************************
 DATASETS  * FILE   NREC   LENGTH (MB)   RECORD NAMES
              1      18       28.89       500      610      700      900      950      970     1000      129      960     1100   
                                          VAR    BASINP    GEOM    SYMINP    ZMAT    AOBASIS   BASIS     P2S    ABASIS      S 
                                         1400     1410     1200     1210     1080     1600     1650     1700   
                                           T        V       H0       H01     AOSYM     SMH    MOLCAS    OPER   

              2       4        0.52       700     1000      520     2100   
                                         GEOM     BASIS   MCVARS     RHF  

 PROGRAMS   *        TOTAL    HF-SCF       INT
 CPU TIMES  *         1.21      0.14      0.93
 REAL TIME  *         2.39 SEC
 DISK USED  *        29.92 MB (local),      611.70 MB (total)
 GA USED    *         0.00 MB       (max)       0.00 MB       (current)
 **********************************************************************************************************************************


 PROGRAM * HESSIAN

 *** Long output written to logfile /gpfs01/work/emmanous/6Frequencies/implementation/MOLPRO/G4-T'/EXAMPLE_BH3/bh3.HF.def2QZVPPDprime.log ***


 PROGRAM * MCKINLEY (Hessian of the energy)     Author: A. Bernhardsson, R. Lindh

 Orbitals from record         2100.2

 Number of closed-shell orbitals:  4 (  3  1  0  0 )
 Number of occupied orbitals:      4 (  3  1  0  0 )

 Number of electrons=  8     Singlet     Space symmetry=1      Wavefunction type: CLOSED          


 McKinley needed      6.68 seconds of CPU time

 Entering CPHF calculation

 CPHF needed  85 iterations for 12 perturbations.  Total CPU time:    0.77 sec


 HF-SCF hessian saved to record  5300.2

 PROGRAM * FREQUENCIES (Calculation of harmonic vibrational spectra for HF-SCF)


 Permanent Dipole Moment [debye]
   1-  3    0.000000    0.000000    0.000000

 Dipole Moment Norm    0.0000000 [debye]

 Dipole Moment Derivatives [debye/ang]
              1             2             3             4             5             6             7             8
    1    0.00000000    0.00000000    0.00000000    0.00000000    0.00000000    0.00000000    0.00000000    0.00000000
    2    0.00000000    0.00000000    0.00000000    0.00000000    0.00000000    0.00000000    0.00000000    0.00000000
    3    0.00000000    0.00000000    0.00000000    0.00000000    0.00000000    0.00000000    0.00000000    0.00000000
              9            10            11            12
    1    0.00000000    0.00000000    0.00000000    0.00000000
    2    0.00000000    0.00000000    0.00000000    0.00000000
    3    0.00000000    0.00000000    0.00000000    0.00000000

 Force Constants (Second Derivatives of the Energy) in [a.u.]
                             BX1         BY1         BZ1         HX2         HY2     
           BX1           0.4336672
           BY1           0.0000000   0.4336113
           BZ1           0.0000000   0.0000000   0.1346818
           HX2          -0.0464477   0.0000000   0.0000000   0.0382521
           HY2           0.0000000  -0.2426188   0.0000000   0.0000000   0.2566083
           HZ2           0.0000000   0.0000000  -0.0448978   0.0000000   0.0000000
           HX3          -0.1936098   0.0849656   0.0000000   0.0040978  -0.0002403
           HY3           0.0849664  -0.0954963   0.0000000   0.0194519  -0.0069947
           HZ3           0.0000000   0.0000000  -0.0448920   0.0000000   0.0000000
           HX4          -0.1936098  -0.0849656   0.0000000   0.0040978   0.0002403
           HY4          -0.0849664  -0.0954963   0.0000000  -0.0194519  -0.0069947
           HZ4           0.0000000   0.0000000  -0.0448920   0.0000000   0.0000000
                             HZ2         HX3         HY3         HZ3         HX4     
           HZ2           0.0152748
           HX3           0.0000000   0.2020521
           HY3           0.0000000  -0.0945718   0.0928472
           HZ3           0.0148115   0.0000000   0.0000000   0.0152685
           HX4           0.0000000  -0.0125401  -0.0098465   0.0000000   0.2020521
           HY4           0.0000000   0.0098465   0.0096438   0.0000000   0.0945718
           HZ4           0.0148115   0.0000000   0.0000000   0.0148120   0.0000000
                             HY4         HZ4     
           HY4           0.0928472
           HZ4           0.0000000   0.0152685


 Atomic Masses
   1-  4   11.009310    1.007825    1.007825    1.007825

 Mass weighted Second Derivative Matrix
                             BX1         BY1         BZ1         HX2         HY2     
           BX1           0.0393910
           BY1           0.0000000   0.0393859
           BZ1           0.0000000   0.0000000   0.0122334
           HX2          -0.0139441   0.0000000   0.0000000   0.0379551
           HY2           0.0000000  -0.0728370   0.0000000   0.0000000   0.2546159
           HZ2           0.0000000   0.0000000  -0.0134788   0.0000000   0.0000000
           HX3          -0.0581239   0.0255077   0.0000000   0.0040660  -0.0002384
           HY3           0.0255079  -0.0286691   0.0000000   0.0193008  -0.0069404
           HZ3           0.0000000   0.0000000  -0.0134771   0.0000000   0.0000000
           HX4          -0.0581239  -0.0255077   0.0000000   0.0040660   0.0002384
           HY4          -0.0255079  -0.0286691   0.0000000  -0.0193008  -0.0069404
           HZ4           0.0000000   0.0000000  -0.0134771   0.0000000   0.0000000
                             HZ2         HX3         HY3         HZ3         HX4     
           HZ2           0.0151562
           HX3           0.0000000   0.2004833
           HY3           0.0000000  -0.0938375   0.0921263
           HZ3           0.0146965   0.0000000   0.0000000   0.0151499
           HX4           0.0000000  -0.0124428  -0.0097700   0.0000000   0.2004833
           HY4           0.0000000   0.0097700   0.0095690   0.0000000   0.0938375
           HZ4           0.0146965   0.0000000   0.0000000   0.0146970   0.0000000
                             HY4         HZ4     
           HY4           0.0921263
           HZ4           0.0000000   0.0151499


 Mass Weighted 2nd Derivative Matrix Eigenvalues
   1- 10    0.000000    0.000000    0.000000    0.000453    0.000455    0.000458    0.056779    0.063462    0.063465    0.261172
  11- 12    0.283989    0.284024

 Mass Weighted 2nd Derivative Matrix Eigenvectors
              1             2             3             4             5             6             7             8
    1    0.88574379    0.00000002    0.00000000    0.00000000    0.00001299    0.00000000    0.00000000    0.00000000
    2   -0.00000002    0.88574379    0.00000000    0.00000000    0.00000000    0.00000000    0.00000000   -0.31442371
    3    0.00000000    0.00000000    0.88574383    0.00000000    0.00000000    0.00002579   -0.46417438    0.00000000
    4    0.26799160    0.00000000    0.00000000    0.00000000    0.57731514    0.00000000    0.00000000    0.00000000
    5    0.00000000    0.26799126    0.00000000    0.00000000    0.00000000    0.00000000    0.00000000   -0.07831461
    6    0.00000000    0.00000000    0.26799089    0.00000000    0.00000000    0.81646865    0.51142920    0.00000000
    7    0.26799108    0.00000000    0.00000000    0.00000000   -0.28868018    0.00000000    0.00000000    0.36781471
    8   -0.00000031    0.26799125    0.00000000    0.00000000   -0.50001737    0.00000000    0.00000000    0.55876168
    9    0.00000000    0.00000000    0.26799137    0.70710678    0.00000000   -0.40827622    0.51136206    0.00000000
   10    0.26799108    0.00000000    0.00000000    0.00000000   -0.28868018    0.00000000    0.00000000   -0.36781471
   11    0.00000030    0.26799125    0.00000000    0.00000000    0.50001737    0.00000000    0.00000000    0.55876168
   12    0.00000000    0.00000000    0.26799137   -0.70710678    0.00000000   -0.40827622    0.51136206    0.00000000
              9            10            11            12
    1   -0.31441843    0.00000000    0.00000000   -0.34146594
    2    0.00000000   -0.00032548   -0.34146092    0.00000000
    3    0.00000000    0.00000000    0.00000000    0.00000000
    4    0.77114599    0.00000000    0.00000000   -0.01488615
    5    0.00000000    0.57808022    0.76672731    0.00000000
    6    0.00000000    0.00000000    0.00000000    0.00000000
    7    0.13402266    0.49967793   -0.33916708    0.57173636
    8    0.36779802   -0.28850224    0.18092134   -0.33868459
    9    0.00000000    0.00000000    0.00000000    0.00000000
   10    0.13402266   -0.49967793    0.33916708    0.57173636
   11   -0.36779802   -0.28850224    0.18092134    0.33868459
   12    0.00000000    0.00000000    0.00000000    0.00000000

   Low Vibration      Wavenumber
        Nr             [1/cm] 
        1                0.10
        2                0.15
        3                0.34

     Vibration        Wavenumber
        Nr             [1/cm] 
        1              109.40
        2              109.69
        3              109.97
        4             1224.89
        5             1294.97
        6             1295.00
        7             2627.05
        8             2739.40
        9             2739.56

 FREQUENCIES * CALCULATION OF NORMAL MODES FOR HF-SCF


 Atomic Coordinates

  Nr  Atom  Charge       X              Y              Z

   1   B     5.00    0.000000000   -0.000021615    0.000000000
   2   H     1.00    0.000000000    2.246409764    0.000000000
   3   H     1.00    1.945415104   -1.123194074    0.000000000
   4   H     1.00   -1.945415104   -1.123194074    0.000000000

 Normal Modes

                              1 A2        2 B2        3 B1        4 B1        5 A1 
 Wavenumbers [cm-1]          109.40      109.69      109.97     1224.89     1294.97
 Intensities [km/mol]          0.00        0.00        0.00        0.00        0.00
 Intensities [relative]        0.00        0.00        0.00        0.00        0.00
           BX1              0.00000     0.00000     0.00000    -0.00000    -0.00000
           BY1              0.00000     0.00000    -0.00000     0.00000    -0.09476
           BZ1             -0.00000    -0.00000     0.00001    -0.13989    -0.00000
           HX2              0.00000     0.57507     0.00000     0.00000     0.00000
           HY2              0.00000     0.00000    -0.00000     0.00000    -0.07801
           HZ2             -0.00000    -0.00000     0.81329     0.50944     0.00000
           HX3             -0.00000    -0.28756    -0.00000    -0.00000     0.36638
           HY3              0.00000    -0.49807    -0.00000    -0.00000     0.55659
           HZ3              0.70436     0.00000    -0.40669     0.50937     0.00000
           HX4              0.00000    -0.28756    -0.00000     0.00000    -0.36638
           HY4              0.00000     0.49807     0.00000    -0.00000     0.55659
           HZ4             -0.70436     0.00000    -0.40669     0.50937     0.00000

                              6 B2        7 Err       8 Err       9 Err
 Wavenumbers [cm-1]         1295.00     2627.05     2739.40     2739.56
 Intensities [km/mol]          0.00        0.00        0.00        0.00
 Intensities [relative]        0.00        0.00        0.00        0.00
           BX1             -0.09476     0.00000    -0.00000    -0.10291
           BY1              0.00000    -0.00010    -0.10291     0.00000
           BZ1              0.00000     0.00000    -0.00000     0.00000
           HX2              0.76815    -0.00000    -0.00000    -0.01483
           HY2              0.00000     0.57583     0.76374    -0.00000
           HZ2             -0.00000     0.00000     0.00000     0.00000
           HX3              0.13350     0.49773    -0.33785     0.56951
           HY3              0.36637    -0.28738     0.18022    -0.33737
           HZ3             -0.00000     0.00000     0.00000     0.00000
           HX4              0.13350    -0.49773     0.33785     0.56951
           HY4             -0.36637    -0.28738     0.18022     0.33737
           HZ4             -0.00000     0.00000     0.00000     0.00000


 Normal Modes of low/zero frequencies

                                  1           2           3
 Wavenumbers [cm-1]            0.10        0.15        0.34
 Intensities [km/mol]          0.00        0.00        0.00
 Intensities [relative]        0.00        0.00        0.00
           BX1              0.26695     0.00000     0.00000
           BY1             -0.00000     0.26695    -0.00000
           BZ1             -0.00000     0.00000     0.26695
           HX2              0.26695     0.00000     0.00000
           HY2             -0.00000     0.26695    -0.00000
           HZ2             -0.00000     0.00000     0.26695
           HX3              0.26695     0.00000     0.00000
           HY3             -0.00000     0.26695    -0.00000
           HZ3             -0.00000     0.00000     0.26695
           HX4              0.26695     0.00000     0.00000
           HY4              0.00000     0.26695    -0.00000
           HZ4             -0.00000     0.00000     0.26695


 Frequencies dumped to record   5400.2

 Zero point energy:  0.02790743 [H]     6124.97 [1/CM]       73.27 [KJ/MOL]
 Frequency information read from record  5400.2


 **********************************************************************************************************************************
 DATASETS  * FILE   NREC   LENGTH (MB)   RECORD NAMES
              1      18       28.89       500      610      700      900      950      970     1000      129      960     1100   
                                          VAR    BASINP    GEOM    SYMINP    ZMAT    AOBASIS   BASIS     P2S    ABASIS      S 
                                         1400     1410     1200     1210     1080     1600     1650     1700   
                                           T        V       H0       H01     AOSYM     SMH    MOLCAS    OPER   

              2       7        0.60       700     1000      520     2100     5300     5450     5400   
                                         GEOM     BASIS   MCVARS     RHF     HESS     NMOD     FREQ   

              4       5        0.79      4100     4000     4200     4300     4400   

 PROGRAMS   *        TOTAL      FREQ    HF-SCF       INT
 CPU TIMES  *         8.68      7.46      0.14      0.93
 REAL TIME  *        10.18 SEC
 DISK USED  *        29.92 MB (local),      611.70 MB (total)
 SF USED    *         0.79 MB
 GA USED    *         0.00 MB       (max)       0.00 MB       (current)
 **********************************************************************************************************************************

 HF/DEF2-QZVPPD,H=DEF2-QZVPP energy=    -26.402376092699

          HF-SCF
    -26.40237609
 **********************************************************************************************************************************
 Molpro calculation terminated
