
 Working directory              : /scratch/emmanous/bh3.HF.def2TZVPPDprime.com.14642/molpro.LAOjPncZ3m/
 Global scratch directory       : /scratch/emmanous/bh3.HF.def2TZVPPDprime.com.14642/molpro.LAOjPncZ3m/
 Wavefunction directory         : /home/emmanous/wfu/
 Main file repository           : /scratch/emmanous/bh3.HF.def2TZVPPDprime.com.14642/molpro.LAOjPncZ3m/

 id        : wis

 Nodes     nprocs
 cff164       8
 GA implementation: MPI file
 GA implementation (serial work in mppx): MPI file

 Using DEFAULT tuning parameter for ncache   :   16384
 Using DEFAULT tuning parameter for mflopdgm :   10000
 Using DEFAULT tuning parameter for mflopdgv :    4000
 Using DEFAULT tuning parameter for mflopmxm :    5000
 Using DEFAULT tuning parameter for mflopmxv :    4000
 Using DEFAULT tuning parameter for mindgm   :       1
 Using DEFAULT tuning parameter for mindgc   :       4
 Using DEFAULT tuning parameter for mindgf   :    5000
 Using DEFAULT tuning parameter for mindgl   :       4
 Using DEFAULT tuning parameter for mindgr   :       1
 Using DEFAULT tuning parameter for mindgv   :      20
 Using DEFAULT tuning parameter for mincuda  :     500
 Using DEFAULT tuning parameter for mxmblk   :      64
 Using DEFAULT tuning parameter for mxmbln   :      64
 Using DEFAULT tuning parameter for nroll    :       2
 Using custom tuning parameter for ngpus     :       0
 Using customized tuning parameters: mindgm=1; mindgv=20; mindgc=4; mindgr=1; noblas=0; minvec=7

 Fortran compiler: integer size=8, double size=8, logical size=8
 default implementation of scratch files=sf  


 Variables initialized (1015), CPU time= 0.00 sec
 gthresh,energy=1d-12,gradient=1d-6,twoint=1d-18,prefac=1d-20
 noorient
 charge=0
 multiplicity=1
 geomtyp=xyz
 geom={
  B          0.0000000000       -0.0000114383        0.0000000000
  H          0.0000000000        1.1887488537        0.0000000000
  H          1.0294693386       -0.5943687076        0.0000000000
  H         -1.0294693386       -0.5943687076        0.0000000000
 }
 MASS,ISO
 MASS,PRINT
 
 basis,def2-TZVPPD,h=def2-TZVPP
 hf
 {freq,analytic,print=3;noproject}
 
 Commands initialized (834), CPU time= 0.01 sec, 672 directives.
 Default parameters read. Elapsed time= 0.07 sec

 Using DEFAULT tuning parameter for mpplat   :       3
 Using DEFAULT tuning parameter for mppspeed :    1600
 Checking input...
 Passed
1


                                         ***  PROGRAM SYSTEM MOLPRO  ***
                                       Copyright, TTI GmbH Stuttgart, 2015
                                    Version 2022.2 linked Thu May  5 23:39:45 2022


 **********************************************************************************************************************************
 LABEL *                                                                                 
  64 bit mpp version                                                                     DATE: 12-Aug-23          TIME: 11:27:59  
 **********************************************************************************************************************************

 SHA1:             518bf5c5e315925380b88506c70af759aa1d1d96
 **********************************************************************************************************************************

 Memory per process:      1500 MW
 Total memory per node:  12000 MW

 GA preallocation disabled
 GA check disabled

 Variable memory set to 1500.0 MW


 THRESHOLDS:

 ZERO    =  1.00D-12  ONEINT  =  1.00D-12  TWOINT  =  1.00D-18  PREFAC  =  1.00D-20  XXXXXX  =  1.00D-09  EORDER  =  1.00D-04
 ENERGY  =  1.00D-12  ETEST   =  0.00D+00  EDENS   =  0.00D+00  THRDEDEF=  1.00D-06  GRADIENT=  1.00D-06  STEP    =  1.00D-03
 ORBITAL =  1.00D-05  CIVEC   =  1.00D-05  COEFF   =  1.00D-04  PRINTCI =  5.00D-02  PUNCHCI =  9.90D+01  OPTGRAD =  3.00D-04
 OPTENERG=  1.00D-06  OPTSTEP =  3.00D-04  THRGRAD =  1.00D-10  COMPRESS=  1.00D-11  VARMIN  =  1.00D-07  VARMAX  =  1.00D-03
 THRDOUB =  0.00D+00  THRDIV  =  1.00D-05  THRRED  =  1.00D-07  THRPSP  =  1.00D+00  THRDC   =  1.00D-10  THRCS   =  1.00D-10
 THRNRM  =  1.00D-08  THREQ   =  0.00D+00  THRDE   =  1.00D+00  THRREF  =  1.00D-05  SPARFAC =  1.00D+00  THRDLP  =  1.00D-07
 THRDIA  =  1.00D-10  THRDLS  =  1.00D-07  THRGPS  =  0.00D+00  THRKEX  =  0.00D+00  THRDIS  =  2.00D-01  THRVAR  =  1.00D-10
 THRLOC  =  1.00D-06  THRGAP  =  1.00D-06  THRLOCT = -1.00D+00  THRGAPT = -1.00D+00  THRORB  =  1.00D-06  THRMLTP =  0.00D+00
 THRCPQCI=  1.00D-10  KEXTA   =  0.00D+00  THRCOARS=  0.00D+00  SYMTOL  =  1.00D-06  GRADTOL =  1.00D-06  THROVL  =  1.00D-08
 THRORTH =  1.00D-08  THRDLOVL= -1.00D+00  GRID    =  1.00D-06  GRIDMAX =  1.00D-03  DTMAX   =  0.00D+00  THROCCDE=  1.00D-01
 THROCCDE=  1.00D-01  THRPRINT=  2.50D-01

 SETTING CHARGE         =      0.0000000D+00                                  
 SETTING MULTIPLICITY   =         1.00000000                                  
 SETTING GEOMTYP        =    XYZ


 Using masses of most abundant isotopes

 **********************************************************************************************************************************


 Atomic masses

 Center       Mass
 B         11.00931
 H          1.00782
 H          1.00782
 H          1.00782
 SETTING BASIS          =    DEF2-TZVPPD,H=DEF2-TZVPP


 Recomputing integrals since basis changed


 Using spherical harmonics

 Library entry B      S def2-TZVPPD          selected for orbital group  1
 Library entry B      P def2-TZVPPD          selected for orbital group  1
 Library entry B      D def2-TZVPPD          selected for orbital group  1
 Library entry B      F def2-TZVPPD          selected for orbital group  1
 Library entry H      S def2-TZVPP           selected for orbital group  2
 Library entry H      P def2-TZVPP           selected for orbital group  2
 Library entry H      D def2-TZVPP           selected for orbital group  2


 PROGRAM * SEWARD (Integral evaluation for generally contracted gaussian basis sets)     Author: Roland Lindh, 1990

 Geometry written to block  1 of record 700


 Point group  C2v 



 ATOMIC COORDINATES

 NR  ATOM    CHARGE       X              Y              Z

   1  B       5.00    0.000000000   -0.000021615    0.000000000
   2  H       1.00    0.000000000    2.246409764    0.000000000
   3  H       1.00    1.945415104   -1.123194074    0.000000000
   4  H       1.00   -1.945415104   -1.123194074    0.000000000

 Bond lengths in Bohr (Angstrom)

 1-2  2.246431380  1-3  2.246365130  1-4  2.246365130
     ( 1.188760292)     ( 1.188725234)     ( 1.188725234)

 Bond angles

  2-1-3  119.99970236   2-1-4  119.99970236   3-1-4  120.00059528

 NUCLEAR CHARGE:                    8
 NUMBER OF PRIMITIVE AOS:         109
 NUMBER OF SYMMETRY AOS:          100
 NUMBER OF CONTRACTIONS:           79   (   34A1  +   21B1  +   15B2  +    9A2  )
 NUMBER OF INNER CORE ORBITALS:     0   (    0A1  +    0B1  +    0B2  +    0A2  )
 NUMBER OF OUTER CORE ORBITALS:     1   (    1A1  +    0B1  +    0B2  +    0A2  )
 NUMBER OF VALENCE ORBITALS:        7   (    4A1  +    2B1  +    1B2  +    0A2  )


 NUCLEAR REPULSION ENERGY    7.44842684

 Eigenvalues of metric

         1 0.197E-02 0.257E-02 0.313E-02 0.673E-02 0.143E-01 0.477E-01 0.516E-01 0.883E-01
         2 0.313E-02 0.673E-02 0.516E-01 0.571E-01 0.883E-01 0.194E+00 0.196E+00 0.306E+00
         3 0.749E-01 0.805E-01 0.224E+00 0.248E+00 0.394E+00 0.417E+00 0.628E+00 0.687E+00
         4 0.805E-01 0.248E+00 0.394E+00 0.628E+00 0.934E+00 0.997E+00 0.128E+01 0.158E+01


 Contracted 2-electron integrals neglected if value below      1.0D-18
 AO integral compression algorithm  1   Integral accuracy      1.0D-18

     15.466 MB (compressed) written to integral file (100.0%)

     Node minimum: 1.835 MB, node maximum: 2.097 MB


 NUMBER OF SORTED TWO-ELECTRON INTEGRALS:     164282.     BUFFER LENGTH:  32768
 NUMBER OF SEGMENTS:   1  SEGMENT LENGTH:     164282      RECORD LENGTH: 524288

 Memory used in sort:       0.72 MW

 SORT1 READ     1742318. AND WROTE      157948. INTEGRALS IN      1 RECORDS. CPU TIME:     0.03 SEC, REAL TIME:     0.03 SEC
 SORT2 READ     1287735. AND WROTE     1338976. INTEGRALS IN     64 RECORDS. CPU TIME:     0.01 SEC, REAL TIME:     0.01 SEC

 Node minimum:      164034.  Node maximum:      169160. integrals

 OPERATOR DM      FOR CENTER  0  COORDINATES:    0.000000    0.000000    0.000000


 **********************************************************************************************************************************
 DATASETS  * FILE   NREC   LENGTH (MB)   RECORD NAMES
              1      18       28.69       500      610      700      900      950      970     1000      129      960     1100   
                                          VAR    BASINP    GEOM    SYMINP    ZMAT    AOBASIS   BASIS     P2S    ABASIS      S 
                                         1400     1410     1200     1210     1080     1600     1650     1700   
                                           T        V       H0       H01     AOSYM     SMH    MOLCAS    OPER   

 PROGRAMS   *        TOTAL       INT
 CPU TIMES  *         0.44      0.32
 REAL TIME  *         1.36 SEC
 DISK USED  *        29.01 MB (local),      274.77 MB (total)
 GA USED    *         0.00 MB       (max)       0.00 MB       (current)
 **********************************************************************************************************************************


 Program * Restricted Hartree-Fock

 Orbital guess generated from atomic densities.

 Initial occupancy:   3   1   0   0

 NELEC=    8   SYM=1   MS2= 0   THRE=1.0D-12   THRD=1.0D-06   THRG=1.0D-06  HFMA2=F  DIIS_START=2   DIIS_MAX=10   DIIS_INCORE=F

 Level shifts:    0.00 (CLOSED)    0.00 (OPEN)    0.30 (GAP_MIN)

 ITER           ETOT              DE          GRAD        DDIFF     DIIS  NEXP   TIME(IT)  TIME(TOT)  DIAG
   1      -26.39482331     -26.39482331     0.00D+00     0.44D-01     0     0       0.00      0.01    start
   2      -26.40037007      -0.00554677     0.54D-02     0.29D-02     1     0       0.00      0.01    diag
   3      -26.40068846      -0.00031839     0.13D-02     0.10D-02     2     0       0.00      0.01    diag
   4      -26.40070269      -0.00001423     0.24D-03     0.21D-03     3     0       0.00      0.01    diag
   5      -26.40070298      -0.00000028     0.29D-04     0.32D-04     4     0       0.00      0.01    diag
   6      -26.40070298      -0.00000001     0.43D-05     0.72D-05     5     0       0.00      0.01    diag
   7      -26.40070298      -0.00000000     0.63D-06     0.79D-06     6     0       0.00      0.01    diag
   8      -26.40070298      -0.00000000     0.58D-07     0.11D-06     7     0       0.00      0.01    fixocc
   9      -26.40070298      -0.00000000     0.35D-08     0.43D-08     0     0       0.00      0.01    diag

 Final occupancy:   3   1   0   0

 !RHF STATE 1.1 Energy                -26.400702982332
  RHF One-electron energy             -49.072724883419
  RHF Two-electron energy              15.223595062417
  RHF Kinetic energy                   26.388592782683
  RHF Nuclear energy                    7.448426838670
  RHF Virial quotient                  -1.000458917978

 !RHF STATE 1.1 Dipole moment           0.00000000    -0.00002308     0.00000000
 Dipole moment /Debye                   0.00000000    -0.00005867     0.00000000

 Orbital energies:

           1.1          2.1          3.1          4.1          5.1
     -7.610912    -0.704581    -0.498633     0.053552     0.156585

           1.2          2.2          3.2
     -0.498641     0.156583     0.172554

           1.3          2.3
      0.054165     0.184725

           1.4          2.4
      0.184725     0.639052


 HOMO      3.1    -0.498633 =     -13.5685eV
 LUMO      4.1     0.053552 =       1.4572eV
 LUMO-HOMO         0.552185 =      15.0257eV

 Orbitals saved in record  2100.2


 **********************************************************************************************************************************
 DATASETS  * FILE   NREC   LENGTH (MB)   RECORD NAMES
              1      18       28.69       500      610      700      900      950      970     1000      129      960     1100   
                                          VAR    BASINP    GEOM    SYMINP    ZMAT    AOBASIS   BASIS     P2S    ABASIS      S 
                                         1400     1410     1200     1210     1080     1600     1650     1700   
                                           T        V       H0       H01     AOSYM     SMH    MOLCAS    OPER   

              2       4        0.43       700     1000      520     2100   
                                         GEOM     BASIS   MCVARS     RHF  

 PROGRAMS   *        TOTAL    HF-SCF       INT
 CPU TIMES  *         0.46      0.02      0.32
 REAL TIME  *         1.75 SEC
 DISK USED  *        29.29 MB (local),      277.05 MB (total)
 GA USED    *         0.00 MB       (max)       0.00 MB       (current)
 **********************************************************************************************************************************


 PROGRAM * HESSIAN

 *** Long output written to logfile /gpfs01/work/emmanous/6Frequencies/implementation/MOLPRO/G4-T'/EXAMPLE_BH3/bh3.HF.def2TZVPPDprime.log ***


 PROGRAM * MCKINLEY (Hessian of the energy)     Author: A. Bernhardsson, R. Lindh

 Orbitals from record         2100.2

 Number of closed-shell orbitals:  4 (  3  1  0  0 )
 Number of occupied orbitals:      4 (  3  1  0  0 )

 Number of electrons=  8     Singlet     Space symmetry=1      Wavefunction type: CLOSED          


 McKinley needed      0.54 seconds of CPU time

 Entering CPHF calculation

 CPHF needed  80 iterations for 12 perturbations.  Total CPU time:    0.06 sec


 HF-SCF hessian saved to record  5300.2

 PROGRAM * FREQUENCIES (Calculation of harmonic vibrational spectra for HF-SCF)


 Permanent Dipole Moment [debye]
   1-  3    0.000000    0.000000    0.000000

 Dipole Moment Norm    0.0000000 [debye]

 Dipole Moment Derivatives [debye/ang]
              1             2             3             4             5             6             7             8
    1    0.00000000    0.00000000    0.00000000    0.00000000    0.00000000    0.00000000    0.00000000    0.00000000
    2    0.00000000    0.00000000    0.00000000    0.00000000    0.00000000    0.00000000    0.00000000    0.00000000
    3    0.00000000    0.00000000    0.00000000    0.00000000    0.00000000    0.00000000    0.00000000    0.00000000
              9            10            11            12
    1    0.00000000    0.00000000    0.00000000    0.00000000
    2    0.00000000    0.00000000    0.00000000    0.00000000
    3    0.00000000    0.00000000    0.00000000    0.00000000

 Force Constants (Second Derivatives of the Energy) in [a.u.]
                             BX1         BY1         BZ1         HX2         HY2     
           BX1           0.4349748
           BY1           0.0000000   0.4349187
           BZ1           0.0000000   0.0000000   0.1342674
           HX2          -0.0462496   0.0000000   0.0000000   0.0381042
           HY2           0.0000000  -0.2436885   0.0000000   0.0000000   0.2576506
           HZ2           0.0000000   0.0000000  -0.0447597   0.0000000   0.0000000
           HX3          -0.1943626   0.0855147   0.0000000   0.0040727  -0.0003333
           HY3           0.0855155  -0.0956151   0.0000000   0.0194777  -0.0069811
           HZ3           0.0000000   0.0000000  -0.0447538   0.0000000   0.0000000
           HX4          -0.1943626  -0.0855147   0.0000000   0.0040727   0.0003333
           HY4          -0.0855155  -0.0956151   0.0000000  -0.0194777  -0.0069811
           HZ4           0.0000000   0.0000000  -0.0447538   0.0000000   0.0000000
                             HZ2         HX3         HY3         HZ3         HX4     
           HZ2           0.0151169
           HX3           0.0000000   0.2027970
           HY3           0.0000000  -0.0950873   0.0929968
           HZ3           0.0148214   0.0000000   0.0000000   0.0151106
           HX4           0.0000000  -0.0125071  -0.0099059   0.0000000   0.2027970
           HY4           0.0000000   0.0099059   0.0095994   0.0000000   0.0950873
           HZ4           0.0148214   0.0000000   0.0000000   0.0148218   0.0000000
                             HY4         HZ4     
           HY4           0.0929968
           HZ4           0.0000000   0.0151106


 Atomic Masses
   1-  4   11.009310    1.007825    1.007825    1.007825

 Mass weighted Second Derivative Matrix
                             BX1         BY1         BZ1         HX2         HY2     
           BX1           0.0395097
           BY1           0.0000000   0.0395046
           BZ1           0.0000000   0.0000000   0.0121958
           HX2          -0.0138847   0.0000000   0.0000000   0.0378083
           HY2           0.0000000  -0.0731581   0.0000000   0.0000000   0.2556502
           HZ2           0.0000000   0.0000000  -0.0134374   0.0000000   0.0000000
           HX3          -0.0583499   0.0256725   0.0000000   0.0040411  -0.0003307
           HY3           0.0256727  -0.0287048   0.0000000   0.0193265  -0.0069268
           HZ3           0.0000000   0.0000000  -0.0134356   0.0000000   0.0000000
           HX4          -0.0583499  -0.0256725   0.0000000   0.0040411   0.0003307
           HY4          -0.0256727  -0.0287048   0.0000000  -0.0193265  -0.0069268
           HZ4           0.0000000   0.0000000  -0.0134356   0.0000000   0.0000000
                             HZ2         HX3         HY3         HZ3         HX4     
           HZ2           0.0149996
           HX3           0.0000000   0.2012224
           HY3           0.0000000  -0.0943490   0.0922747
           HZ3           0.0147063   0.0000000   0.0000000   0.0149933
           HX4           0.0000000  -0.0124100  -0.0098290   0.0000000   0.2012224
           HY4           0.0000000   0.0098290   0.0095248   0.0000000   0.0943490
           HZ4           0.0147063   0.0000000   0.0000000   0.0147068   0.0000000
                             HY4         HZ4     
           HY4           0.0922747
           HZ4           0.0000000   0.0149933


 Mass Weighted 2nd Derivative Matrix Eigenvalues
   1- 10    0.000000    0.000000    0.000000    0.000287    0.000289    0.000291    0.056604    0.063305    0.063309    0.262033
  11- 12    0.285248    0.285283

 Mass Weighted 2nd Derivative Matrix Eigenvectors
              1             2             3             4             5             6             7             8
    1   -0.00000085    0.88574379    0.00000000    0.00000000    0.00001248    0.00000000    0.00000000    0.00000000
    2    0.88574379    0.00000085    0.00000000    0.00000000    0.00000000    0.00000000    0.00000000   -0.31451394
    3    0.00000000    0.00000000    0.88574385    0.00000000    0.00000000    0.00001218   -0.46417436    0.00000000
    4   -0.00000026    0.26799199    0.00000000    0.00000000    0.57731481    0.00000000    0.00000000    0.00000000
    5    0.26799126    0.00000026    0.00000000    0.00000000    0.00000000    0.00000000    0.00000000   -0.07811190
    6    0.00000000    0.00000000    0.26800350    0.00000000    0.00000000    0.81646441    0.51142936    0.00000000
    7   -0.00000026    0.26799089    0.00000000    0.00000000   -0.28868040    0.00000000    0.00000000    0.36772517
    8    0.26799126   -0.00000038    0.00000000    0.00000000   -0.50001743    0.00000000    0.00000000    0.55880941
    9    0.00000000    0.00000000    0.26798504    0.70710678    0.00000000   -0.40828046    0.51136199    0.00000000
   10   -0.00000026    0.26799089    0.00000000    0.00000000   -0.28868040    0.00000000    0.00000000   -0.36772517
   11    0.26799126    0.00000089    0.00000000    0.00000000    0.50001743    0.00000000    0.00000000    0.55880941
   12    0.00000000    0.00000000    0.26798504   -0.70710678    0.00000000   -0.40828046    0.51136199    0.00000000
              9            10            11            12
    1   -0.31450866    0.00000000    0.00000000   -0.34138284
    2    0.00000000   -0.00032053   -0.34137783    0.00000000
    3    0.00000000    0.00000000    0.00000000    0.00000000
    4    0.77114214    0.00000000    0.00000000   -0.01508990
    5    0.00000000    0.57806927    0.76675624    0.00000000
    6    0.00000000    0.00000000    0.00000000    0.00000000
    7    0.13417367    0.49968271   -0.33925711    0.57170091
    8    0.36770842   -0.28850493    0.18076956   -0.33878177
    9    0.00000000    0.00000000    0.00000000    0.00000000
   10    0.13417367   -0.49968271    0.33925711    0.57170091
   11   -0.36770842   -0.28850493    0.18076956    0.33878177
   12    0.00000000    0.00000000    0.00000000    0.00000000

   Low Vibration      Wavenumber
        Nr             [1/cm] 
        1                0.03
        2                0.04
        3                0.32

     Vibration        Wavenumber
        Nr             [1/cm] 
        1               87.02
        2               87.38
        3               87.74
        4             1223.01
        5             1293.37
        6             1293.41
        7             2631.37
        8             2745.46
        9             2745.63

 FREQUENCIES * CALCULATION OF NORMAL MODES FOR HF-SCF


 Atomic Coordinates

  Nr  Atom  Charge       X              Y              Z

   1   B     5.00    0.000000000   -0.000021615    0.000000000
   2   H     1.00    0.000000000    2.246409764    0.000000000
   3   H     1.00    1.945415104   -1.123194074    0.000000000
   4   H     1.00   -1.945415104   -1.123194074    0.000000000

 Normal Modes

                              1 A2        2 B2        3 B1        4 B1        5 A1 
 Wavenumbers [cm-1]           87.02       87.38       87.74     1223.01     1293.37
 Intensities [km/mol]          0.00        0.00        0.00        0.00        0.00
 Intensities [relative]        0.00        0.00        0.00        0.00        0.00
           BX1             -0.00000     0.00000     0.00000    -0.00000     0.00000
           BY1              0.00000     0.00000    -0.00000    -0.00000    -0.09479
           BZ1              0.00000    -0.00000     0.00000    -0.13989    -0.00000
           HX2             -0.00000     0.57507     0.00000     0.00000    -0.00000
           HY2              0.00000     0.00000    -0.00000    -0.00000    -0.07781
           HZ2             -0.00000    -0.00000     0.81329     0.50944     0.00000
           HX3              0.00000    -0.28756    -0.00000    -0.00000     0.36629
           HY3              0.00000    -0.49807    -0.00000    -0.00000     0.55664
           HZ3              0.70436     0.00000    -0.40669     0.50937     0.00000
           HX4              0.00000    -0.28756    -0.00000     0.00000    -0.36629
           HY4             -0.00000     0.49807     0.00000    -0.00000     0.55664
           HZ4             -0.70436    -0.00000    -0.40669     0.50937     0.00000

                              6 B2        7 Err       8 Err       9 Err
 Wavenumbers [cm-1]         1293.41     2631.37     2745.46     2745.63
 Intensities [km/mol]          0.00        0.00        0.00        0.00
 Intensities [relative]        0.00        0.00        0.00        0.00
           BX1             -0.09479     0.00000    -0.00000    -0.10289
           BY1             -0.00000    -0.00010    -0.10289     0.00000
           BZ1              0.00000     0.00000    -0.00000    -0.00000
           HX2              0.76814     0.00000    -0.00000    -0.01503
           HY2             -0.00000     0.57582     0.76377    -0.00000
           HZ2             -0.00000     0.00000     0.00000     0.00000
           HX3              0.13365     0.49774    -0.33794     0.56948
           HY3              0.36628    -0.28738     0.18007    -0.33746
           HZ3             -0.00000    -0.00000     0.00000     0.00000
           HX4              0.13365    -0.49774     0.33794     0.56948
           HY4             -0.36628    -0.28738     0.18007     0.33746
           HZ4             -0.00000    -0.00000     0.00000     0.00000


 Normal Modes of low/zero frequencies

                                  1           2           3
 Wavenumbers [cm-1]            0.03        0.04        0.32
 Intensities [km/mol]          0.00        0.00        0.00
 Intensities [relative]        0.00        0.00        0.00
           BX1             -0.00000     0.26695     0.00000
           BY1              0.26695     0.00000    -0.00000
           BZ1              0.00000    -0.00000     0.26695
           HX2             -0.00000     0.26695     0.00000
           HY2              0.26695     0.00000    -0.00000
           HZ2              0.00000    -0.00000     0.26696
           HX3             -0.00000     0.26695     0.00000
           HY3              0.26695    -0.00000    -0.00000
           HZ3              0.00000    -0.00000     0.26694
           HX4             -0.00000     0.26695     0.00000
           HY4              0.26695     0.00000    -0.00000
           HZ4              0.00000    -0.00000     0.26694


 Frequencies dumped to record   5400.2

 Zero point energy:  0.02778085 [H]     6097.19 [1/CM]       72.94 [KJ/MOL]
 Frequency information read from record  5400.2


 **********************************************************************************************************************************
 DATASETS  * FILE   NREC   LENGTH (MB)   RECORD NAMES
              1      18       28.69       500      610      700      900      950      970     1000      129      960     1100   
                                          VAR    BASINP    GEOM    SYMINP    ZMAT    AOBASIS   BASIS     P2S    ABASIS      S 
                                         1400     1410     1200     1210     1080     1600     1650     1700   
                                           T        V       H0       H01     AOSYM     SMH    MOLCAS    OPER   

              2       7        0.46       700     1000      520     2100     5300     5450     5400   
                                         GEOM     BASIS   MCVARS     RHF     HESS     NMOD     FREQ   

              4       5        0.23      4100     4000     4200     4300     4400   

 PROGRAMS   *        TOTAL      FREQ    HF-SCF       INT
 CPU TIMES  *         1.06      0.60      0.02      0.32
 REAL TIME  *         2.39 SEC
 DISK USED  *        29.29 MB (local),      277.05 MB (total)
 SF USED    *         0.23 MB
 GA USED    *         0.00 MB       (max)       0.00 MB       (current)
 **********************************************************************************************************************************

 HF/DEF2-TZVPPD,H=DEF2-TZVPP energy=    -26.400702982332

          HF-SCF
    -26.40070298
 **********************************************************************************************************************************
 Molpro calculation terminated
