
 Working directory              : /scratch/emmanous/bh3.MP2.def2QZVPPDprime.com.15122/molpro.GkpDGuTo21/
 Global scratch directory       : /scratch/emmanous/bh3.MP2.def2QZVPPDprime.com.15122/molpro.GkpDGuTo21/
 Wavefunction directory         : /home/emmanous/wfu/
 Main file repository           : /scratch/emmanous/bh3.MP2.def2QZVPPDprime.com.15122/molpro.GkpDGuTo21/

 id        : wis

 Nodes     nprocs
 cff164       8
 GA implementation: MPI file
 GA implementation (serial work in mppx): MPI file

 Using DEFAULT tuning parameter for ncache   :   16384
 Using DEFAULT tuning parameter for mflopdgm :   10000
 Using DEFAULT tuning parameter for mflopdgv :    4000
 Using DEFAULT tuning parameter for mflopmxm :    5000
 Using DEFAULT tuning parameter for mflopmxv :    4000
 Using DEFAULT tuning parameter for mindgm   :       1
 Using DEFAULT tuning parameter for mindgc   :       4
 Using DEFAULT tuning parameter for mindgf   :    5000
 Using DEFAULT tuning parameter for mindgl   :       4
 Using DEFAULT tuning parameter for mindgr   :       1
 Using DEFAULT tuning parameter for mindgv   :      20
 Using DEFAULT tuning parameter for mincuda  :     500
 Using DEFAULT tuning parameter for mxmblk   :      64
 Using DEFAULT tuning parameter for mxmbln   :      64
 Using DEFAULT tuning parameter for nroll    :       2
 Using custom tuning parameter for ngpus     :       0
 Using customized tuning parameters: mindgm=1; mindgv=20; mindgc=4; mindgr=1; noblas=0; minvec=7

 Fortran compiler: integer size=8, double size=8, logical size=8
 default implementation of scratch files=sf  


 Variables initialized (1015), CPU time= 0.01 sec
 gthresh,energy=1d-12,gradient=1d-6,twoint=1d-18,prefac=1d-20
 noorient
 charge=0
 multiplicity=1
 geomtyp=xyz
 geom={
  B          0.0000000000       -0.0000114383        0.0000000000
  H          0.0000000000        1.1887488537        0.0000000000
  H          1.0294693386       -0.5943687076        0.0000000000
  H         -1.0294693386       -0.5943687076        0.0000000000
 }
 MASS,ISO
 MASS,PRINT
 
 basis,def2-QZVPPD,h=def2-QZVPP
 hf
 mp2
 {freq,analytic,print=3;noproject}
 
 Commands initialized (834), CPU time= 0.01 sec, 672 directives.
 Default parameters read. Elapsed time= 0.08 sec

 Using DEFAULT tuning parameter for mpplat   :       3
 Using DEFAULT tuning parameter for mppspeed :    1600
 Checking input...
 Passed
1


                                         ***  PROGRAM SYSTEM MOLPRO  ***
                                       Copyright, TTI GmbH Stuttgart, 2015
                                    Version 2022.2 linked Thu May  5 23:39:45 2022


 **********************************************************************************************************************************
 LABEL *                                                                                 
  64 bit mpp version                                                                     DATE: 12-Aug-23          TIME: 11:28:24  
 **********************************************************************************************************************************

 SHA1:             518bf5c5e315925380b88506c70af759aa1d1d96
 **********************************************************************************************************************************

 Memory per process:      1500 MW
 Total memory per node:  12000 MW

 GA preallocation disabled
 GA check disabled

 Variable memory set to 1500.0 MW


 THRESHOLDS:

 ZERO    =  1.00D-12  ONEINT  =  1.00D-12  TWOINT  =  1.00D-18  PREFAC  =  1.00D-20  XXXXXX  =  1.00D-09  EORDER  =  1.00D-04
 ENERGY  =  1.00D-12  ETEST   =  0.00D+00  EDENS   =  0.00D+00  THRDEDEF=  1.00D-06  GRADIENT=  1.00D-06  STEP    =  1.00D-03
 ORBITAL =  1.00D-05  CIVEC   =  1.00D-05  COEFF   =  1.00D-04  PRINTCI =  5.00D-02  PUNCHCI =  9.90D+01  OPTGRAD =  3.00D-04
 OPTENERG=  1.00D-06  OPTSTEP =  3.00D-04  THRGRAD =  1.00D-10  COMPRESS=  1.00D-11  VARMIN  =  1.00D-07  VARMAX  =  1.00D-03
 THRDOUB =  0.00D+00  THRDIV  =  1.00D-05  THRRED  =  1.00D-07  THRPSP  =  1.00D+00  THRDC   =  1.00D-10  THRCS   =  1.00D-10
 THRNRM  =  1.00D-08  THREQ   =  0.00D+00  THRDE   =  1.00D+00  THRREF  =  1.00D-05  SPARFAC =  1.00D+00  THRDLP  =  1.00D-07
 THRDIA  =  1.00D-10  THRDLS  =  1.00D-07  THRGPS  =  0.00D+00  THRKEX  =  0.00D+00  THRDIS  =  2.00D-01  THRVAR  =  1.00D-10
 THRLOC  =  1.00D-06  THRGAP  =  1.00D-06  THRLOCT = -1.00D+00  THRGAPT = -1.00D+00  THRORB  =  1.00D-06  THRMLTP =  0.00D+00
 THRCPQCI=  1.00D-10  KEXTA   =  0.00D+00  THRCOARS=  0.00D+00  SYMTOL  =  1.00D-06  GRADTOL =  1.00D-06  THROVL  =  1.00D-08
 THRORTH =  1.00D-08  THRDLOVL= -1.00D+00  GRID    =  1.00D-06  GRIDMAX =  1.00D-03  DTMAX   =  0.00D+00  THROCCDE=  1.00D-01
 THROCCDE=  1.00D-01  THRPRINT=  2.50D-01

 SETTING CHARGE         =      0.0000000D+00                                  
 SETTING MULTIPLICITY   =         1.00000000                                  
 SETTING GEOMTYP        =    XYZ


 Using masses of most abundant isotopes

 **********************************************************************************************************************************


 Atomic masses

 Center       Mass
 B         11.00931
 H          1.00782
 H          1.00782
 H          1.00782
 SETTING BASIS          =    DEF2-QZVPPD,H=DEF2-QZVPP


 Recomputing integrals since basis changed


 Using spherical harmonics

 Library entry B      S def2-QZVPPD          selected for orbital group  1
 Library entry B      P def2-QZVPPD          selected for orbital group  1
 Library entry B      D def2-QZVPPD          selected for orbital group  1
 Library entry B      F def2-QZVPPD          selected for orbital group  1
 Library entry B      G def2-QZVPPD          selected for orbital group  1
 Library entry H      S def2-QZVPP           selected for orbital group  2
 Library entry H      P def2-QZVPP           selected for orbital group  2
 Library entry H      D def2-QZVPP           selected for orbital group  2
 Library entry H      F def2-QZVPP           selected for orbital group  2


 PROGRAM * SEWARD (Integral evaluation for generally contracted gaussian basis sets)     Author: Roland Lindh, 1990

 Geometry written to block  1 of record 700


 Point group  C2v 



 ATOMIC COORDINATES

 NR  ATOM    CHARGE       X              Y              Z

   1  B       5.00    0.000000000   -0.000021615    0.000000000
   2  H       1.00    0.000000000    2.246409764    0.000000000
   3  H       1.00    1.945415104   -1.123194074    0.000000000
   4  H       1.00   -1.945415104   -1.123194074    0.000000000

 Bond lengths in Bohr (Angstrom)

 1-2  2.246431380  1-3  2.246365130  1-4  2.246365130
     ( 1.188760292)     ( 1.188725234)     ( 1.188725234)

 Bond angles

  2-1-3  119.99970236   2-1-4  119.99970236   3-1-4  120.00059528

 NUCLEAR CHARGE:                    8
 NUMBER OF PRIMITIVE AOS:         213
 NUMBER OF SYMMETRY AOS:          182
 NUMBER OF CONTRACTIONS:          153   (   60A1  +   41B1  +   31B2  +   21A2  )
 NUMBER OF INNER CORE ORBITALS:     0   (    0A1  +    0B1  +    0B2  +    0A2  )
 NUMBER OF OUTER CORE ORBITALS:     1   (    1A1  +    0B1  +    0B2  +    0A2  )
 NUMBER OF VALENCE ORBITALS:        7   (    4A1  +    2B1  +    1B2  +    0A2  )


 NUCLEAR REPULSION ENERGY    7.44842684

 Eigenvalues of metric

         1 0.155E-03 0.290E-03 0.121E-02 0.215E-02 0.238E-02 0.340E-02 0.402E-02 0.726E-02
         2 0.290E-03 0.215E-02 0.340E-02 0.738E-02 0.104E-01 0.188E-01 0.255E-01 0.630E-01
         3 0.103E-01 0.120E-01 0.337E-01 0.421E-01 0.811E-01 0.124E+00 0.178E+00 0.224E+00
         4 0.120E-01 0.421E-01 0.124E+00 0.135E+00 0.178E+00 0.237E+00 0.399E+00 0.483E+00


 Contracted 2-electron integrals neglected if value below      1.0D-18
 AO integral compression algorithm  1   Integral accuracy      1.0D-18

     184.025 MB (compressed) written to integral file (100.0%)

     Node minimum: 21.234 MB, node maximum: 26.477 MB


 NUMBER OF SORTED TWO-ELECTRON INTEGRALS:    2234768.     BUFFER LENGTH:  32768
 NUMBER OF SEGMENTS:   1  SEGMENT LENGTH:    2234768      RECORD LENGTH: 524288

 Memory used in sort:       2.79 MW

 SORT1 READ    22771097. AND WROTE     2166750. INTEGRALS IN      7 RECORDS. CPU TIME:     0.33 SEC, REAL TIME:     0.36 SEC
 SORT2 READ    17392405. AND WROTE    17940577. INTEGRALS IN    648 RECORDS. CPU TIME:     0.05 SEC, REAL TIME:     0.05 SEC

 Node minimum:     2234768.  Node maximum:     2250179. integrals

 OPERATOR DM      FOR CENTER  0  COORDINATES:    0.000000    0.000000    0.000000


 **********************************************************************************************************************************
 DATASETS  * FILE   NREC   LENGTH (MB)   RECORD NAMES
              1      18       28.88       500      610      700      900      950      970     1000      129      960     1100   
                                          VAR    BASINP    GEOM    SYMINP    ZMAT    AOBASIS   BASIS     P2S    ABASIS      S 
                                         1400     1410     1200     1210     1080     1600     1650     1700   
                                           T        V       H0       H01     AOSYM     SMH    MOLCAS    OPER   

 PROGRAMS   *        TOTAL       INT
 CPU TIMES  *         1.06      0.93
 REAL TIME  *         2.02 SEC
 DISK USED  *        29.23 MB (local),      605.20 MB (total)
 GA USED    *         0.00 MB       (max)       0.00 MB       (current)
 **********************************************************************************************************************************


 Program * Restricted Hartree-Fock

 Orbital guess generated from atomic densities.

 Initial occupancy:   3   1   0   0

 NELEC=    8   SYM=1   MS2= 0   THRE=1.0D-12   THRD=1.0D-06   THRG=1.0D-06  HFMA2=F  DIIS_START=2   DIIS_MAX=10   DIIS_INCORE=F

 Level shifts:    0.00 (CLOSED)    0.00 (OPEN)    0.30 (GAP_MIN)

 ITER           ETOT              DE          GRAD        DDIFF     DIIS  NEXP   TIME(IT)  TIME(TOT)  DIAG
   1      -26.39644836     -26.39644836     0.00D+00     0.19D-01     0     0       0.00      0.01    start
   2      -26.40203834      -0.00558998     0.40D-02     0.14D-02     1     0       0.01      0.02    diag
   3      -26.40236153      -0.00032319     0.93D-03     0.44D-03     2     0       0.00      0.02    diag
   4      -26.40237577      -0.00001423     0.18D-03     0.11D-03     3     0       0.01      0.03    diag
   5      -26.40237609      -0.00000032     0.23D-04     0.22D-04     4     0       0.00      0.03    diag
   6      -26.40237609      -0.00000001     0.33D-05     0.29D-05     5     0       0.01      0.04    diag
   7      -26.40237609      -0.00000000     0.49D-06     0.61D-06     6     0       0.00      0.04    diag
   8      -26.40237609      -0.00000000     0.50D-07     0.52D-07     7     0       0.01      0.05    fixocc
   9      -26.40237609      -0.00000000     0.41D-08     0.74D-08     8     0       0.01      0.06    diag
  10      -26.40237609      -0.00000000     0.21D-09     0.23D-09     0     0       0.00      0.06    diag/orth

 Final occupancy:   3   1   0   0

 !RHF STATE 1.1 Energy                -26.402376092699
  RHF One-electron energy             -49.075303893882
  RHF Two-electron energy              15.224500962513
  RHF Kinetic energy                   26.394018767736
  RHF Nuclear energy                    7.448426838670
  RHF Virial quotient                  -1.000316637077

 !RHF STATE 1.1 Dipole moment           0.00000000    -0.00002306     0.00000000
 Dipole moment /Debye                   0.00000000    -0.00005861     0.00000000

 Orbital energies:

           1.1          2.1          3.1          4.1          5.1
     -7.610790    -0.704739    -0.498807     0.055055     0.108115

           1.2          2.2          3.2
     -0.498815     0.108114     0.146112

           1.3          2.3
      0.046559     0.156080

           1.4          2.4
      0.156080     0.493259


 HOMO      3.1    -0.498807 =     -13.5732eV
 LUMO      1.3     0.046559 =       1.2669eV
 LUMO-HOMO         0.545366 =      14.8402eV

 Orbitals saved in record  2100.2


 **********************************************************************************************************************************
 DATASETS  * FILE   NREC   LENGTH (MB)   RECORD NAMES
              1      18       28.89       500      610      700      900      950      970     1000      129      960     1100   
                                          VAR    BASINP    GEOM    SYMINP    ZMAT    AOBASIS   BASIS     P2S    ABASIS      S 
                                         1400     1410     1200     1210     1080     1600     1650     1700   
                                           T        V       H0       H01     AOSYM     SMH    MOLCAS    OPER   

              2       4        0.52       700     1000      520     2100   
                                         GEOM     BASIS   MCVARS     RHF  

 PROGRAMS   *        TOTAL    HF-SCF       INT
 CPU TIMES  *         1.12      0.06      0.93
 REAL TIME  *         2.51 SEC
 DISK USED  *        29.92 MB (local),      610.71 MB (total)
 GA USED    *         0.00 MB       (max)       0.00 MB       (current)
 **********************************************************************************************************************************


 PROGRAM * MP2 (Closed-shell)     Authors: C. Hampel, H.-J. Werner, 1991, M. Deegan, P.J. Knowles, 1992


 Convergence thresholds:  THRVAR = 1.00D-16  THRDEN = 1.00D-12

 Number of core orbitals:           1 (   1   0   0   0 )
 Number of closed-shell orbitals:   3 (   2   1   0   0 )
 Number of external orbitals:     149 (  57  40  31  21 )

 Molecular orbitals read from record     2100.2  Type=RHF/CANONICAL  

 Number of N-1 electron functions:               3
 Number of N-2 electron functions:               6
 Number of singly external CSFs:               154
 Number of doubly external CSFs:             27575
 Total number of CSFs:                       27730

 Length of J-op  integral file:               0.00 MB
 Length of K-op  integral file:               0.46 MB

 Integral transformation finished. Total CPU:   0.02 sec, npass=  1  Memory used:   0.15 MW

 Memory needed for MP2:                      0.03 MW

 SCS-MP2 correlation energy:           -0.133918843382   (PS=  1.200000  PT=  0.333333)
 SCS-MP2 total energy:                -26.536294936081


  Reference energy                    -26.402376092699
  MP2 singlet pair energy              -0.102448777582
  MP2 triplet pair energy              -0.017646927241
  MP2 correlation energy               -0.120095704823

 !MP2 total energy                    -26.522471797522

 KEXT needed  1 integral passes. Memory used:   0.30 MW  CPU time:      0.01 sec

 CPHF start vector      0.2 not found

 Starting Coupled-perturbed Hartree-Fock, convergence threshold= 1.0D-06

 ITER   MIC  DIIS      VAR         VARC       CPU
   1     0     1    0.96D-02    0.90D-03     0.01
   2     4     2    0.21D-03    0.59D-04     0.02
   3     3     3    0.12D-05    0.83D-06     0.02
   4     1     4    0.50D-06    0.37D-07     0.03

 CPHF convergence reached in  4 macroiterations and    8 microiterations.   Accuracy: 5.0074D-07

 CPHF solution written to record  4100.2

 Dipole moments (unrelaxed):            0.00000000    -0.00002282     0.00000000
 Orbital relaxation contribution:      -0.00000000     0.00000287    -0.00000000
 !MP2 STATE 1.1 Dipole moment           0.00000000    -0.00001994     0.00000000
 Dipole moment /Debye                   0.00000000    -0.00005069     0.00000000

 CPU-time for density and lagrangian:                  0.01 sec
 CPU-time for coupled-perturbed hartree-fock:          0.03 sec

 MP2 gradient info saved on record         5200.1


 **********************************************************************************************************************************
 DATASETS  * FILE   NREC   LENGTH (MB)   RECORD NAMES
              1      20       29.88       500      610      700      900      950      970     1000      129      960     1100   
                                          VAR    BASINP    GEOM    SYMINP    ZMAT    AOBASIS   BASIS     P2S    ABASIS      S 
                                         1400     1410     1200     1210     1080     1600     1650     1700     1380     5200   
                                           T        V       H0       H01     AOSYM     SMH    MOLCAS    OPER     JKOP      MP2  

              2       5        0.83       700     1000      520     2100     4100   
                                         GEOM     BASIS   MCVARS     RHF     CPHF   

 PROGRAMS   *        TOTAL       MP2    HF-SCF       INT
 CPU TIMES  *         1.23      0.10      0.06      0.93
 REAL TIME  *         2.64 SEC
 DISK USED  *        30.78 MB (local),      617.63 MB (total)
 SF USED    *         2.29 MB
 GA USED    *         0.00 MB       (max)       0.00 MB       (current)
 **********************************************************************************************************************************


 PROGRAM * HESSIAN

 *** Long output written to logfile /gpfs01/work/emmanous/6Frequencies/implementation/MOLPRO/G4-T'/EXAMPLE_BH3/bh3.MP2.def2QZVPPDprime.log ***


 Computing numerical hessian using default procedure for command MP2

 Symmetry elements for unique displacements: X  Z  

 Using AUTO symmetry option

 Running default procedure: HF-SCF000  MP2


 Numerically approximating hessian using central gradient differences

 Task list generated. Total number of displacements:     13

 All  13 tasks completed.  CPU=     30.50 sec, Elapsed=     33.85 sec.

 MP2 hessian saved to record  5300.2

 PROGRAM * FREQUENCIES (Calculation of harmonic vibrational spectra for MP2)


 Permanent Dipole Moment [debye]
   1-  3    0.000000   -0.000051    0.000000

 Dipole Moment Norm    0.0000507 [debye]

 Dipole Moment Derivatives [debye/ang]
              1             2             3             4             5             6             7             8
    1    2.65674653    0.00000000    0.00000000   -0.46819601    0.00000000    0.00000000   -1.09430302    0.36160873
    2    0.00000000    2.65688056    0.00000000    0.00000000   -1.30306104    0.00000000    0.36148909   -0.67697032
    3    0.00000000    0.00000000    2.24178836    0.00000000    0.00000000   -0.74728280    0.00000000    0.00000000
              9            10            11            12
    1    0.00000000   -1.09430302   -0.36160873    0.00000000
    2    0.00000000   -0.36148909   -0.67697032    0.00000000
    3   -0.74726893    0.00000000    0.00000000   -0.74726893

 Force Constants (Second Derivatives of the Energy) in [a.u.]
                             BX1         BY1         BZ1         HX2         HY2     
           BX1           0.4257598
           BY1           0.0000000   0.4257047
           BZ1           0.0000000   0.0000000   0.1251631
           HX2          -0.0429776   0.0000000   0.0000000   0.0353321
           HY2           0.0000000  -0.2408346   0.0000000   0.0000000   0.2521808
           HZ2           0.0000000   0.0000000  -0.0417253   0.0000000   0.0000000
           HX3          -0.1913912   0.0856900   0.0000000   0.0038227  -0.0013261
           HY3           0.0856890  -0.0924344   0.0000000   0.0177724  -0.0056739
           HZ3           0.0000000   0.0000000  -0.0417194   0.0000000   0.0000000
           HX4          -0.1913912  -0.0856900   0.0000000   0.0038227   0.0013261
           HY4          -0.0856890  -0.0924344   0.0000000  -0.0177724  -0.0056739
           HZ4           0.0000000   0.0000000  -0.0417194   0.0000000   0.0000000
                             HZ2         HX3         HY3         HZ3         HX4     
           HZ2           0.0143940
           HX3           0.0000000   0.1979896
           HY3           0.0000000  -0.0939119   0.0895370
           HZ3           0.0136658   0.0000000   0.0000000   0.0143877
           HX4           0.0000000  -0.0104210  -0.0095488   0.0000000   0.1979896
           HY4           0.0000000   0.0095488   0.0085713   0.0000000   0.0939119
           HZ4           0.0136658   0.0000000   0.0000000   0.0136662  -0.0000000
                             HY4         HZ4     
           HY4           0.0895370
           HZ4           0.0000000   0.0143877


 Atomic Masses
   1-  4   11.009310    1.007825    1.007825    1.007825

 Mass weighted Second Derivative Matrix
                             BX1         BY1         BZ1         HX2         HY2     
           BX1           0.0386727
           BY1           0.0000000   0.0386677
           BZ1           0.0000000   0.0000000   0.0113688
           HX2          -0.0129024   0.0000000   0.0000000   0.0350578
           HY2           0.0000000  -0.0723013   0.0000000   0.0000000   0.2502228
           HZ2           0.0000000   0.0000000  -0.0125264   0.0000000   0.0000000
           HX3          -0.0574579   0.0257251   0.0000000   0.0037931  -0.0013159
           HY3           0.0257248  -0.0277499   0.0000000   0.0176344  -0.0056298
           HZ3           0.0000000   0.0000000  -0.0125247   0.0000000   0.0000000
           HX4          -0.0574579  -0.0257251   0.0000000   0.0037931   0.0013159
           HY4          -0.0257248  -0.0277499   0.0000000  -0.0176344  -0.0056298
           HZ4           0.0000000   0.0000000  -0.0125247   0.0000000   0.0000000
                             HZ2         HX3         HY3         HZ3         HX4     
           HZ2           0.0142823
           HX3           0.0000000   0.1964523
           HY3           0.0000000  -0.0931828   0.0888418
           HZ3           0.0135597   0.0000000   0.0000000   0.0142760
           HX4           0.0000000  -0.0103401  -0.0094747   0.0000000   0.1964523
           HY4           0.0000000   0.0094747   0.0085048   0.0000000   0.0931828
           HZ4           0.0135597   0.0000000   0.0000000   0.0135601  -0.0000000
                             HY4         HZ4     
           HY4           0.0888418
           HZ4           0.0000000   0.0142760


 Mass Weighted 2nd Derivative Matrix Eigenvalues
   1- 10    0.000000    0.000000    0.000000    0.000713    0.000716    0.000721    0.052767    0.058457    0.058466    0.253591
  11- 12    0.280982    0.281002

 Mass Weighted 2nd Derivative Matrix Eigenvectors
              1             2             3             4             5             6             7             8
    1    0.88574439   -0.00000016    0.00000002   -0.00019225    0.00000000    0.00000000    0.00000000    0.00000000
    2    0.00000016    0.88574398    0.00002043    0.00000000    0.00000000    0.00000000    0.00000000   -0.31351212
    3   -0.00000002   -0.00002043    0.88574548    0.00000000    0.00000000    0.00002709   -0.46417125    0.00000000
    4    0.26813358   -0.00000005    0.00000000    0.57719978    0.00000000    0.00000000    0.00000000    0.00000000
    5    0.00000005    0.26799284    0.00000618    0.00000000    0.00000000    0.00000000    0.00000000   -0.08036335
    6    0.00000000   -0.00000618    0.26798994    0.00000000    0.00000000    0.81646591    0.51143407    0.00000000
    7    0.26791905   -0.00000139    0.00000000   -0.28874787    0.00000000    0.00000000    0.00000000    0.36870697
    8   -0.00012569    0.26799014    0.00000618   -0.50004486    0.00000000    0.00000000    0.00000000    0.55828408
    9    0.00000000   -0.00000618    0.26798913    0.00000000    0.70710678   -0.40827896    0.51136105    0.00000000
   10    0.26791905    0.00000129    0.00000000   -0.28874787    0.00000000    0.00000000    0.00000000   -0.36870697
   11    0.00012579    0.26799014    0.00000618    0.50004486    0.00000000    0.00000000    0.00000000    0.55828408
   12    0.00000000   -0.00000618    0.26798913    0.00000000   -0.70710678   -0.40827896    0.51136105    0.00000000
              9            10            11            12
    1   -0.31349756    0.00000000    0.00000000   -0.34230998
    2    0.00000000   -0.00016521   -0.34229771    0.00000000
    3    0.00000000    0.00000000    0.00000000    0.00000000
    4    0.77122009    0.00000000    0.00000000   -0.01282103
    5    0.00000000    0.57770717    0.76679592    0.00000000
    6    0.00000000    0.00000000    0.00000000    0.00000000
    7    0.13246802    0.49984819   -0.33794520    0.57209813
    8    0.36867554   -0.28858098    0.18226680   -0.33768843
    9    0.00000000    0.00000000    0.00000000    0.00000000
   10    0.13246802   -0.49984819    0.33794520    0.57209813
   11   -0.36867554   -0.28858098    0.18226680    0.33768843
   12    0.00000000    0.00000000    0.00000000    0.00000000

 Imaginary Vibration  Wavenumber
        Nr             [1/cm] 
        1                0.03
        2                0.01
        3                0.00

     Vibration        Wavenumber
        Nr             [1/cm] 
        1              137.23
        2              137.54
        3              137.99
        4             1180.82
        5             1242.86
        6             1242.95
        7             2588.64
        8             2724.85
        9             2724.95

 FREQUENCIES * CALCULATION OF NORMAL MODES FOR MP2


 Atomic Coordinates

  Nr  Atom  Charge       X              Y              Z

   1   B     5.00    0.000000000   -0.000021615    0.000000000
   2   H     1.00    0.000000000    2.246409764    0.000000000
   3   H     1.00    1.945415104   -1.123194074    0.000000000
   4   H     1.00   -1.945415104   -1.123194074    0.000000000

 Normal Modes

                              1 B2        2 A2        3 B1        4 B1        5 A1 
 Wavenumbers [cm-1]          137.23      137.54      137.99     1180.82     1242.86
 Intensities [km/mol]          0.00        0.00        0.00       89.53       16.99
 Intensities [relative]        0.00        0.00        0.00       68.51       13.00
           BX1             -0.00006    -0.00000     0.00000    -0.00000    -0.00000
           BY1              0.00000     0.00000     0.00000     0.00000    -0.09449
           BZ1              0.00000    -0.00000     0.00001    -0.13989    -0.00000
           HX2              0.57495     0.00000    -0.00000     0.00000     0.00000
           HY2              0.00000     0.00000     0.00000     0.00000    -0.08005
           HZ2              0.00000    -0.00000     0.81329     0.50944     0.00000
           HX3             -0.28762    -0.00000     0.00000    -0.00000     0.36727
           HY3             -0.49810    -0.00000     0.00000    -0.00000     0.55611
           HZ3             -0.00000     0.70436    -0.40669     0.50937     0.00000
           HX4             -0.28762    -0.00000     0.00000     0.00000    -0.36727
           HY4              0.49810     0.00000    -0.00000    -0.00000     0.55611
           HZ4              0.00000    -0.70436    -0.40669     0.50937     0.00000

                              6 B2        7 Err       8 Err       9 Err
 Wavenumbers [cm-1]         1242.95     2588.64     2724.85     2724.95
 Intensities [km/mol]         16.98        0.00      130.68      130.69
 Intensities [relative]       12.99        0.00      100.00      100.00
           BX1             -0.09448    -0.00000     0.00000    -0.10317
           BY1              0.00000    -0.00005    -0.10316    -0.00000
           BZ1              0.00000     0.00000     0.00000     0.00000
           HX2              0.76822    -0.00000     0.00000    -0.01277
           HY2              0.00000     0.57546     0.76381     0.00000
           HZ2             -0.00000    -0.00000    -0.00000     0.00000
           HX3              0.13195     0.49790    -0.33663     0.56987
           HY3              0.36724    -0.28746     0.18156    -0.33637
           HZ3             -0.00000     0.00000    -0.00000     0.00000
           HX4              0.13195    -0.49790     0.33663     0.56987
           HY4             -0.36724    -0.28746     0.18156     0.33637
           HZ4             -0.00000    -0.00000    -0.00000     0.00000


 Normal Modes of imaginary frequencies

                                  1           2           3
 Wavenumbers [cm-1]            0.03        0.01        0.00
 Intensities [km/mol]          0.00        0.00        0.00
 Intensities [relative]        0.00        0.00        0.00
           BX1              0.26695    -0.00000     0.00000
           BY1              0.00000     0.26695     0.00001
           BZ1             -0.00000    -0.00001     0.26695
           HX2              0.26709    -0.00000     0.00000
           HY2              0.00000     0.26695     0.00001
           HZ2             -0.00000    -0.00001     0.26695
           HX3              0.26688    -0.00000     0.00000
           HY3             -0.00013     0.26695     0.00001
           HZ3             -0.00000    -0.00001     0.26695
           HX4              0.26688     0.00000     0.00000
           HY4              0.00013     0.26695     0.00001
           HZ4             -0.00000    -0.00001     0.26695


 Normal Modes of low/zero frequencies


 Wavenumbers [cm-1]
 Intensities [km/mol]
 Intensities [relative]
           BX1     
           BY1     
           BZ1     
           HX2     
           HY2     
           HZ2     
           HX3     
           HY3     
           HZ3     
           HX4     
           HY4     
           HZ4     


 Frequencies dumped to record   5400.2

 Zero point energy:  0.02760646 [H]     6058.92 [1/CM]       72.48 [KJ/MOL]
 Frequency information read from record  5400.2

 Recomputing wavefunction at initial geometry


 **********************************************************************************************************************************
 DATASETS  * FILE   NREC   LENGTH (MB)   RECORD NAMES
              1      20       29.88       500      610      700      900      950      970     1000      129      960     1100   
                                          VAR    BASINP    GEOM    SYMINP    ZMAT    AOBASIS   BASIS     P2S    ABASIS      S 
                                         1400     1410     1200     1210     1080     1600     1650     1700     1380     5200   
                                           T        V       H0       H01     AOSYM     SMH    MOLCAS    OPER     JKOP      MP2  

              2       8        0.96       700     1000      520     2100     4100     5300     5450     5400   
                                         GEOM     BASIS   MCVARS     RHF     CPHF     HESS     NMOD     FREQ   

 PROGRAMS   *        TOTAL      FREQ       MP2    HF-SCF       INT
 CPU TIMES  *        31.06     29.83      0.10      0.06      0.93
 REAL TIME  *        38.47 SEC
 DISK USED  *       741.25 MB (local),        6.05 GB (total)
 SF USED    *         2.29 MB
 GA USED    *         0.00 MB       (max)       0.00 MB       (current)
 **********************************************************************************************************************************

 MP2/DEF2-QZVPPD,H=DEF2-QZVPP energy=    -26.522471797511

             MP2          HF-SCF
    -26.52247180    -26.40237609
 **********************************************************************************************************************************
 Molpro calculation terminated
