
 Working directory              : /scratch/emmanous/bh3.MP2.def2TZVP.com.15359/molpro.EVoohmoSLX/
 Global scratch directory       : /scratch/emmanous/bh3.MP2.def2TZVP.com.15359/molpro.EVoohmoSLX/
 Wavefunction directory         : /home/emmanous/wfu/
 Main file repository           : /scratch/emmanous/bh3.MP2.def2TZVP.com.15359/molpro.EVoohmoSLX/

 id        : wis

 Nodes     nprocs
 cff164       8
 GA implementation: MPI file
 GA implementation (serial work in mppx): MPI file

 Using DEFAULT tuning parameter for ncache   :   16384
 Using DEFAULT tuning parameter for mflopdgm :   10000
 Using DEFAULT tuning parameter for mflopdgv :    4000
 Using DEFAULT tuning parameter for mflopmxm :    5000
 Using DEFAULT tuning parameter for mflopmxv :    4000
 Using DEFAULT tuning parameter for mindgm   :       1
 Using DEFAULT tuning parameter for mindgc   :       4
 Using DEFAULT tuning parameter for mindgf   :    5000
 Using DEFAULT tuning parameter for mindgl   :       4
 Using DEFAULT tuning parameter for mindgr   :       1
 Using DEFAULT tuning parameter for mindgv   :      20
 Using DEFAULT tuning parameter for mincuda  :     500
 Using DEFAULT tuning parameter for mxmblk   :      64
 Using DEFAULT tuning parameter for mxmbln   :      64
 Using DEFAULT tuning parameter for nroll    :       2
 Using custom tuning parameter for ngpus     :       0
 Using customized tuning parameters: mindgm=1; mindgv=20; mindgc=4; mindgr=1; noblas=0; minvec=7

 Fortran compiler: integer size=8, double size=8, logical size=8
 default implementation of scratch files=sf  


 Variables initialized (1015), CPU time= 0.01 sec
 gthresh,energy=1d-12,gradient=1d-6,twoint=1d-18,prefac=1d-20
 noorient
 charge=0
 multiplicity=1
 geomtyp=xyz
 geom={
  B          0.0000000000       -0.0000114383        0.0000000000
  H          0.0000000000        1.1887488537        0.0000000000
  H          1.0294693386       -0.5943687076        0.0000000000
  H         -1.0294693386       -0.5943687076        0.0000000000
 }
 MASS,ISO
 MASS,PRINT
 
 basis,def2-TZVP
 hf
 mp2
 {freq,analytical,print=3;noproject}
 Commands initialized (834), CPU time= 0.01 sec, 672 directives.
 Default parameters read. Elapsed time= 0.07 sec

 Using DEFAULT tuning parameter for mpplat   :       3
 Using DEFAULT tuning parameter for mppspeed :    1600
 Checking input...
 Passed
1


                                         ***  PROGRAM SYSTEM MOLPRO  ***
                                       Copyright, TTI GmbH Stuttgart, 2015
                                    Version 2022.2 linked Thu May  5 23:39:45 2022


 **********************************************************************************************************************************
 LABEL *                                                                                 
  64 bit mpp version                                                                     DATE: 12-Aug-23          TIME: 11:29:04  
 **********************************************************************************************************************************

 SHA1:             518bf5c5e315925380b88506c70af759aa1d1d96
 **********************************************************************************************************************************

 Memory per process:      1500 MW
 Total memory per node:  12000 MW

 GA preallocation disabled
 GA check disabled

 Variable memory set to 1500.0 MW


 THRESHOLDS:

 ZERO    =  1.00D-12  ONEINT  =  1.00D-12  TWOINT  =  1.00D-18  PREFAC  =  1.00D-20  XXXXXX  =  1.00D-09  EORDER  =  1.00D-04
 ENERGY  =  1.00D-12  ETEST   =  0.00D+00  EDENS   =  0.00D+00  THRDEDEF=  1.00D-06  GRADIENT=  1.00D-06  STEP    =  1.00D-03
 ORBITAL =  1.00D-05  CIVEC   =  1.00D-05  COEFF   =  1.00D-04  PRINTCI =  5.00D-02  PUNCHCI =  9.90D+01  OPTGRAD =  3.00D-04
 OPTENERG=  1.00D-06  OPTSTEP =  3.00D-04  THRGRAD =  1.00D-10  COMPRESS=  1.00D-11  VARMIN  =  1.00D-07  VARMAX  =  1.00D-03
 THRDOUB =  0.00D+00  THRDIV  =  1.00D-05  THRRED  =  1.00D-07  THRPSP  =  1.00D+00  THRDC   =  1.00D-10  THRCS   =  1.00D-10
 THRNRM  =  1.00D-08  THREQ   =  0.00D+00  THRDE   =  1.00D+00  THRREF  =  1.00D-05  SPARFAC =  1.00D+00  THRDLP  =  1.00D-07
 THRDIA  =  1.00D-10  THRDLS  =  1.00D-07  THRGPS  =  0.00D+00  THRKEX  =  0.00D+00  THRDIS  =  2.00D-01  THRVAR  =  1.00D-10
 THRLOC  =  1.00D-06  THRGAP  =  1.00D-06  THRLOCT = -1.00D+00  THRGAPT = -1.00D+00  THRORB  =  1.00D-06  THRMLTP =  0.00D+00
 THRCPQCI=  1.00D-10  KEXTA   =  0.00D+00  THRCOARS=  0.00D+00  SYMTOL  =  1.00D-06  GRADTOL =  1.00D-06  THROVL  =  1.00D-08
 THRORTH =  1.00D-08  THRDLOVL= -1.00D+00  GRID    =  1.00D-06  GRIDMAX =  1.00D-03  DTMAX   =  0.00D+00  THROCCDE=  1.00D-01
 THROCCDE=  1.00D-01  THRPRINT=  2.50D-01

 SETTING CHARGE         =      0.0000000D+00                                  
 SETTING MULTIPLICITY   =         1.00000000                                  
 SETTING GEOMTYP        =    XYZ


 Using masses of most abundant isotopes

 **********************************************************************************************************************************


 Atomic masses

 Center       Mass
 B         11.00931
 H          1.00782
 H          1.00782
 H          1.00782
 SETTING BASIS          =    DEF2-TZVP


 Recomputing integrals since basis changed


 Using spherical harmonics

 Library entry B      S def2-TZVP            selected for orbital group  1
 Library entry B      P def2-TZVP            selected for orbital group  1
 Library entry B      D def2-TZVP            selected for orbital group  1
 Library entry B      F def2-TZVP            selected for orbital group  1
 Library entry H      S def2-TZVP            selected for orbital group  2
 Library entry H      P def2-TZVP            selected for orbital group  2


 PROGRAM * SEWARD (Integral evaluation for generally contracted gaussian basis sets)     Author: Roland Lindh, 1990

 Geometry written to block  1 of record 700


 Point group  C2v 



 ATOMIC COORDINATES

 NR  ATOM    CHARGE       X              Y              Z

   1  B       5.00    0.000000000   -0.000021615    0.000000000
   2  H       1.00    0.000000000    2.246409764    0.000000000
   3  H       1.00    1.945415104   -1.123194074    0.000000000
   4  H       1.00   -1.945415104   -1.123194074    0.000000000

 Bond lengths in Bohr (Angstrom)

 1-2  2.246431380  1-3  2.246365130  1-4  2.246365130
     ( 1.188760292)     ( 1.188725234)     ( 1.188725234)

 Bond angles

  2-1-3  119.99970236   2-1-4  119.99970236   3-1-4  120.00059528

 NUCLEAR CHARGE:                    8
 NUMBER OF PRIMITIVE AOS:          75
 NUMBER OF SYMMETRY AOS:           70
 NUMBER OF CONTRACTIONS:           49   (   23A1  +   13B1  +    9B2  +    4A2  )
 NUMBER OF INNER CORE ORBITALS:     0   (    0A1  +    0B1  +    0B2  +    0A2  )
 NUMBER OF OUTER CORE ORBITALS:     1   (    1A1  +    0B1  +    0B2  +    0A2  )
 NUMBER OF VALENCE ORBITALS:        7   (    4A1  +    2B1  +    1B2  +    0A2  )


 NUCLEAR REPULSION ENERGY    7.44842684

 Eigenvalues of metric

         1 0.885E-02 0.963E-02 0.109E-01 0.200E-01 0.382E-01 0.143E+00 0.160E+00 0.195E+00
         2 0.963E-02 0.200E-01 0.160E+00 0.183E+00 0.195E+00 0.349E+00 0.543E+00 0.657E+00
         3 0.142E+00 0.313E+00 0.400E+00 0.473E+00 0.738E+00 0.118E+01 0.134E+01 0.203E+01
         4 0.313E+00 0.473E+00 0.118E+01 0.203E+01


 Contracted 2-electron integrals neglected if value below      1.0D-18
 AO integral compression algorithm  1   Integral accuracy      1.0D-18

     3.408 MB (compressed) written to integral file (100.0%)

     Node minimum: 0.262 MB, node maximum: 0.524 MB


 NUMBER OF SORTED TWO-ELECTRON INTEGRALS:      25750.     BUFFER LENGTH:  32768
 NUMBER OF SEGMENTS:   1  SEGMENT LENGTH:      25750      RECORD LENGTH: 524288

 Memory used in sort:       0.58 MW

 SORT1 READ      260219. AND WROTE       23520. INTEGRALS IN      1 RECORDS. CPU TIME:     0.01 SEC, REAL TIME:     0.02 SEC
 SORT2 READ      192802. AND WROTE      213047. INTEGRALS IN     16 RECORDS. CPU TIME:     0.00 SEC, REAL TIME:     0.00 SEC

 Node minimum:       24751.  Node maximum:       29025. integrals

 OPERATOR DM      FOR CENTER  0  COORDINATES:    0.000000    0.000000    0.000000


 **********************************************************************************************************************************
 DATASETS  * FILE   NREC   LENGTH (MB)   RECORD NAMES
              1      18       28.64       500      610      700      900      950      970     1000      129      960     1100   
                                          VAR    BASINP    GEOM    SYMINP    ZMAT    AOBASIS   BASIS     P2S    ABASIS      S 
                                         1400     1410     1200     1210     1080     1600     1650     1700   
                                           T        V       H0       H01     AOSYM     SMH    MOLCAS    OPER   

 PROGRAMS   *        TOTAL       INT
 CPU TIMES  *         0.41      0.28
 REAL TIME  *         1.32 SEC
 DISK USED  *        28.95 MB (local),      265.38 MB (total)
 GA USED    *         0.00 MB       (max)       0.00 MB       (current)
 **********************************************************************************************************************************


 Program * Restricted Hartree-Fock

 Orbital guess generated from atomic densities.

 Initial occupancy:   3   1   0   0

 NELEC=    8   SYM=1   MS2= 0   THRE=1.0D-12   THRD=1.0D-06   THRG=1.0D-06  HFMA2=F  DIIS_START=2   DIIS_MAX=10   DIIS_INCORE=F

 Level shifts:    0.00 (CLOSED)    0.00 (OPEN)    0.30 (GAP_MIN)

 ITER           ETOT              DE          GRAD        DDIFF     DIIS  NEXP   TIME(IT)  TIME(TOT)  DIAG
   1      -26.39434010     -26.39434010     0.00D+00     0.68D-01     0     0       0.00      0.01    start
   2      -26.39987852      -0.00553842     0.67D-02     0.45D-02     1     0       0.00      0.01    diag
   3      -26.40019624      -0.00031772     0.15D-02     0.13D-02     2     0       0.00      0.01    diag
   4      -26.40021064      -0.00001440     0.30D-03     0.27D-03     3     0       0.00      0.01    diag
   5      -26.40021091      -0.00000027     0.36D-04     0.50D-04     4     0       0.00      0.01    diag
   6      -26.40021092      -0.00000001     0.54D-05     0.11D-04     5     0       0.00      0.01    diag
   7      -26.40021092      -0.00000000     0.74D-06     0.12D-05     6     0       0.00      0.01    diag
   8      -26.40021092      -0.00000000     0.70D-07     0.91D-07     7     0       0.01      0.02    fixocc
   9      -26.40021092      -0.00000000     0.39D-08     0.55D-08     0     0       0.00      0.02    diag

 Final occupancy:   3   1   0   0

 !RHF STATE 1.1 Energy                -26.400210917802
  RHF One-electron energy             -49.071432873165
  RHF Two-electron energy              15.222795116693
  RHF Kinetic energy                   26.390279420618
  RHF Nuclear energy                    7.448426838670
  RHF Virial quotient                  -1.000376331642

 !RHF STATE 1.1 Dipole moment           0.00000000    -0.00002296     0.00000000
 Dipole moment /Debye                   0.00000000    -0.00005836     0.00000000

 Orbital energies:

           1.1          2.1          3.1          4.1          5.1
     -7.610925    -0.704614    -0.498687     0.137965     0.169549

           1.2          2.2          3.2
     -0.498695     0.169548     0.288502

           1.3          2.3
      0.054185     0.284487

           1.4          2.4
      0.527160     1.742671


 HOMO      3.1    -0.498687 =     -13.5700eV
 LUMO      1.3     0.054185 =       1.4745eV
 LUMO-HOMO         0.552872 =      15.0444eV

 Orbitals saved in record  2100.2


 **********************************************************************************************************************************
 DATASETS  * FILE   NREC   LENGTH (MB)   RECORD NAMES
              1      18       28.64       500      610      700      900      950      970     1000      129      960     1100   
                                          VAR    BASINP    GEOM    SYMINP    ZMAT    AOBASIS   BASIS     P2S    ABASIS      S 
                                         1400     1410     1200     1210     1080     1600     1650     1700   
                                           T        V       H0       H01     AOSYM     SMH    MOLCAS    OPER   

              2       4        0.41       700     1000      520     2100   
                                         GEOM     BASIS   MCVARS     RHF  

 PROGRAMS   *        TOTAL    HF-SCF       INT
 CPU TIMES  *         0.43      0.02      0.28
 REAL TIME  *         2.27 SEC
 DISK USED  *        29.15 MB (local),      266.97 MB (total)
 GA USED    *         0.00 MB       (max)       0.00 MB       (current)
 **********************************************************************************************************************************


 PROGRAM * MP2 (Closed-shell)     Authors: C. Hampel, H.-J. Werner, 1991, M. Deegan, P.J. Knowles, 1992


 Convergence thresholds:  THRVAR = 1.00D-16  THRDEN = 1.00D-12

 Number of core orbitals:           1 (   1   0   0   0 )
 Number of closed-shell orbitals:   3 (   2   1   0   0 )
 Number of external orbitals:      45 (  20  12   9   4 )

 Molecular orbitals read from record     2100.2  Type=RHF/CANONICAL  

 Number of N-1 electron functions:               3
 Number of N-2 electron functions:               6
 Number of singly external CSFs:                52
 Number of doubly external CSFs:              2774
 Total number of CSFs:                        2827

 Length of J-op  integral file:               0.00 MB
 Length of K-op  integral file:               0.05 MB

 Integral transformation finished. Total CPU:   0.00 sec, npass=  1  Memory used:   0.08 MW

 Memory needed for MP2:                      0.00 MW

 SCS-MP2 correlation energy:           -0.117564779327   (PS=  1.200000  PT=  0.333333)
 SCS-MP2 total energy:                -26.517775697129


  Reference energy                    -26.400210917802
  MP2 singlet pair energy              -0.089379608211
  MP2 triplet pair energy              -0.016568436654
  MP2 correlation energy               -0.105948044865

 !MP2 total energy                    -26.506158962667

 KEXT needed  1 integral passes. Memory used:   0.05 MW  CPU time:      0.00 sec

 CPHF start vector      0.2 not found

 Starting Coupled-perturbed Hartree-Fock, convergence threshold= 1.0D-06

 ITER   MIC  DIIS      VAR         VARC       CPU
   1     0     1    0.11D-01    0.87D-03     0.00
   2     4     2    0.22D-03    0.67D-04     0.00
   3     3     3    0.20D-05    0.75D-06     0.00
   4     1     4    0.36D-06    0.23D-07     0.00

 CPHF convergence reached in  4 macroiterations and    8 microiterations.   Accuracy: 3.6222D-07

 CPHF solution written to record  4100.2

 Dipole moments (unrelaxed):            0.00000000    -0.00002262     0.00000000
 Orbital relaxation contribution:      -0.00000000     0.00000329    -0.00000000
 !MP2 STATE 1.1 Dipole moment           0.00000000    -0.00001933     0.00000000
 Dipole moment /Debye                   0.00000000    -0.00004914     0.00000000

 CPU-time for density and lagrangian:                  0.00 sec
 CPU-time for coupled-perturbed hartree-fock:          0.00 sec

 MP2 gradient info saved on record         5200.1


 **********************************************************************************************************************************
 DATASETS  * FILE   NREC   LENGTH (MB)   RECORD NAMES
              1      20       28.75       500      610      700      900      950      970     1000      129      960     1100   
                                          VAR    BASINP    GEOM    SYMINP    ZMAT    AOBASIS   BASIS     P2S    ABASIS      S 
                                         1400     1410     1200     1210     1080     1600     1650     1700     1380     5200   
                                           T        V       H0       H01     AOSYM     SMH    MOLCAS    OPER     JKOP      MP2  

              2       5        0.44       700     1000      520     2100     4100   
                                         GEOM     BASIS   MCVARS     RHF     CPHF   

 PROGRAMS   *        TOTAL       MP2    HF-SCF       INT
 CPU TIMES  *         0.47      0.04      0.02      0.28
 REAL TIME  *         2.32 SEC
 DISK USED  *        29.24 MB (local),      267.74 MB (total)
 SF USED    *         0.28 MB
 GA USED    *         0.00 MB       (max)       0.00 MB       (current)
 **********************************************************************************************************************************


 PROGRAM * HESSIAN

 *** Long output written to logfile /gpfs01/work/emmanous/6Frequencies/implementation/MOLPRO/G4-T'/EXAMPLE_BH3/bh3.MP2.def2TZVP.log ***


 Computing numerical hessian using default procedure for command MP2

 Symmetry elements for unique displacements: X  Z  

 Using AUTO symmetry option

 Running default procedure: HF-SCF000  MP2


 Numerically approximating hessian using central gradient differences

 Task list generated. Total number of displacements:     13

 All  13 tasks completed.  CPU=      1.58 sec, Elapsed=      1.81 sec.

 MP2 hessian saved to record  5300.2

 PROGRAM * FREQUENCIES (Calculation of harmonic vibrational spectra for MP2)


 Permanent Dipole Moment [debye]
   1-  3    0.000000   -0.000049    0.000000

 Dipole Moment Norm    0.0000491 [debye]

 Dipole Moment Derivatives [debye/ang]
              1             2             3             4             5             6             7             8
    1    2.58283596    0.00000000    0.00000000   -0.46085251    0.00000000    0.00000000   -1.06100094    0.34652115
    2    0.00000000    2.58293613    0.00000000    0.00000000   -1.26112588    0.00000000    0.34650329   -0.66092061
    3    0.00000000    0.00000000    2.24587655    0.00000000    0.00000000   -0.74864476    0.00000000    0.00000000
              9            10            11            12
    1    0.00000000   -1.06100094   -0.34652115    0.00000000
    2    0.00000000   -0.34650329   -0.66092061    0.00000000
    3   -0.74863224    0.00000000    0.00000000   -0.74863224

 Force Constants (Second Derivatives of the Energy) in [a.u.]
                             BX1         BY1         BZ1         HX2         HY2     
           BX1           0.4321722
           BY1           0.0000000   0.4321171
           BZ1           0.0000000   0.0000000   0.1240348
           HX2          -0.0417966   0.0000000   0.0000000   0.0342187
           HY2           0.0000000  -0.2462901   0.0000000   0.0000000   0.2574068
           HZ2           0.0000000   0.0000000  -0.0413494   0.0000000   0.0000000
           HX3          -0.1951879   0.0885638   0.0000000   0.0037890  -0.0014331
           HY3           0.0885646  -0.0929135   0.0000000   0.0176227  -0.0055586
           HZ3           0.0000000   0.0000000  -0.0413433   0.0000000   0.0000000
           HX4          -0.1951879  -0.0885638   0.0000000   0.0037890   0.0014331
           HY4          -0.0885646  -0.0929135   0.0000000  -0.0176227  -0.0055586
           HZ4           0.0000000   0.0000000  -0.0413433   0.0000000   0.0000000
                             HZ2         HX3         HY3         HZ3         HX4     
           HZ2           0.0137217
           HX3           0.0000000   0.2016309
           HY3           0.0000000  -0.0966587   0.0900096
           HZ3           0.0138141   0.0000000   0.0000000   0.0137152
           HX4           0.0000000  -0.0102319  -0.0095281   0.0000000   0.2016309
           HY4           0.0000000   0.0095281   0.0084628   0.0000000   0.0966587
           HZ4           0.0138141   0.0000000   0.0000000   0.0138145  -0.0000000
                             HY4         HZ4     
           HY4           0.0900096
           HZ4           0.0000000   0.0137152


 Atomic Masses
   1-  4   11.009310    1.007825    1.007825    1.007825

 Mass weighted Second Derivative Matrix
                             BX1         BY1         BZ1         HX2         HY2     
           BX1           0.0392552
           BY1           0.0000000   0.0392502
           BZ1           0.0000000   0.0000000   0.0112664
           HX2          -0.0125478   0.0000000   0.0000000   0.0339530
           HY2           0.0000000  -0.0739391   0.0000000   0.0000000   0.2554082
           HZ2           0.0000000   0.0000000  -0.0124136   0.0000000   0.0000000
           HX3          -0.0585977   0.0265879   0.0000000   0.0037596  -0.0014219
           HY3           0.0265881  -0.0278937   0.0000000   0.0174859  -0.0055155
           HZ3           0.0000000   0.0000000  -0.0124118   0.0000000   0.0000000
           HX4          -0.0585977  -0.0265879   0.0000000   0.0037596   0.0014219
           HY4          -0.0265881  -0.0278937   0.0000000  -0.0174859  -0.0055155
           HZ4           0.0000000   0.0000000  -0.0124118   0.0000000   0.0000000
                             HZ2         HX3         HY3         HZ3         HX4     
           HZ2           0.0136151
           HX3           0.0000000   0.2000654
           HY3           0.0000000  -0.0959083   0.0893108
           HZ3           0.0137068   0.0000000   0.0000000   0.0136087
           HX4           0.0000000  -0.0101525  -0.0094541   0.0000000   0.2000654
           HY4           0.0000000   0.0094541   0.0083970   0.0000000   0.0959083
           HZ4           0.0137068   0.0000000   0.0000000   0.0137072  -0.0000000
                             HY4         HZ4     
           HY4           0.0893108
           HZ4           0.0000000   0.0136087


 Mass Weighted 2nd Derivative Matrix Eigenvalues
   1- 10   -0.000102   -0.000098   -0.000094    0.000000    0.000000    0.000000    0.052291    0.057055    0.057064    0.258479
  11- 12    0.287050    0.287073

 Mass Weighted 2nd Derivative Matrix Eigenvectors
              1             2             3             4             5             6             7             8
    1    0.00107008    0.00000000    0.00000000    0.00000000   -0.00000002    0.88574376    0.00000000    0.00000000
    2    0.00000000    0.00000000    0.00000000    0.00001555    0.88574426    0.00000002    0.00000000   -0.31344723
    3    0.00000000    0.00000000    0.00002265    0.88574577   -0.00001555    0.00000000   -0.46417068    0.00000000
    4    0.57757681    0.00000000    0.00000000    0.00000000    0.00000000    0.26731297    0.00000000    0.00000000
    5    0.00000000    0.00000000    0.00000000    0.00000470    0.26799194    0.00000000    0.00000000   -0.08050900
    6    0.00000000    0.00000000    0.81646371    0.26799427   -0.00000470    0.00000000    0.51143532    0.00000000
    7   -0.28837058    0.00000000    0.00000000    0.00000000   -0.00000068    0.26832917    0.00000000    0.36877206
    8   -0.50004434    0.00000000    0.00000000    0.00000470    0.26799013    0.00058507    0.00000000    0.55824881
    9    0.00000000    0.70710678   -0.40828116    0.26798647   -0.00000470    0.00000000    0.51136068    0.00000000
   10   -0.28837058    0.00000000    0.00000000    0.00000000    0.00000067    0.26832917    0.00000000   -0.36877206
   11    0.50004434    0.00000000    0.00000000    0.00000470    0.26799013   -0.00058505    0.00000000    0.55824881
   12    0.00000000   -0.70710678   -0.40828116    0.26798647   -0.00000470    0.00000000    0.51136068    0.00000000
              9            10            11            12
    1   -0.31343639    0.00000000    0.00000000   -0.34236600
    2    0.00000000   -0.00016496   -0.34235640    0.00000000
    3    0.00000000    0.00000000    0.00000000    0.00000000
    4    0.77122502    0.00000000    0.00000000   -0.01267981
    5    0.00000000    0.57770727    0.76678089    0.00000000
    6    0.00000000    0.00000000    0.00000000    0.00000000
    7    0.13236432    0.49984771   -0.33787489    0.57212022
    8    0.36873363   -0.28858172    0.18237364   -0.33762527
    9    0.00000000    0.00000000    0.00000000    0.00000000
   10    0.13236432   -0.49984771    0.33787489    0.57212022
   11   -0.36873363   -0.28858172    0.18237364    0.33762527
   12    0.00000000    0.00000000    0.00000000    0.00000000

 Imaginary Vibration  Wavenumber
        Nr             [1/cm] 
        1               51.84
        2               51.02
        3               49.75
        4                0.01
        5                0.00

   Low Vibration      Wavenumber
        Nr             [1/cm] 
        1                0.06

     Vibration        Wavenumber
        Nr             [1/cm] 
        1             1175.49
        2             1227.86
        3             1227.96
        4             2613.47
        5             2754.12
        6             2754.23

 FREQUENCIES * CALCULATION OF NORMAL MODES FOR MP2


 Atomic Coordinates

  Nr  Atom  Charge       X              Y              Z

   1   B     5.00    0.000000000   -0.000021615    0.000000000
   2   H     1.00    0.000000000    2.246409764    0.000000000
   3   H     1.00    1.945415104   -1.123194074    0.000000000
   4   H     1.00   -1.945415104   -1.123194074    0.000000000

 Normal Modes

                              1 B1        2 A1        3 B2        4 A1        5 A1 
 Wavenumbers [cm-1]         1175.49     1227.86     1227.96     2613.47     2754.12
 Intensities [km/mol]         89.86       16.42       16.41        0.00      122.57
 Intensities [relative]       73.31       13.40       13.39        0.00      100.00
           BX1              0.00000     0.00000    -0.09446     0.00000    -0.00000
           BY1             -0.00000    -0.09447    -0.00000    -0.00005    -0.10318
           BZ1             -0.13989     0.00000    -0.00000    -0.00000     0.00000
           HX2             -0.00000    -0.00000     0.76823    -0.00000    -0.00000
           HY2             -0.00000    -0.08020    -0.00000     0.57546     0.76380
           HZ2              0.50945    -0.00000     0.00000     0.00000     0.00000
           HX3              0.00000     0.36734     0.13185     0.49790    -0.33656
           HY3              0.00000     0.55608     0.36730    -0.28746     0.18166
           HZ3              0.50937    -0.00000     0.00000     0.00000     0.00000
           HX4             -0.00000    -0.36734     0.13185    -0.49790     0.33656
           HY4              0.00000     0.55608    -0.36730    -0.28746     0.18166
           HZ4              0.50937    -0.00000     0.00000     0.00000     0.00000

                              6 B2 
 Wavenumbers [cm-1]         2754.23
 Intensities [km/mol]        122.56
 Intensities [relative]       99.99
           BX1             -0.10318
           BY1              0.00000
           BZ1              0.00000
           HX2             -0.01263
           HY2             -0.00000
           HZ2             -0.00000
           HX3              0.56989
           HY3             -0.33631
           HZ3             -0.00000
           HX4              0.56989
           HY4              0.33631
           HZ4             -0.00000


 Normal Modes of imaginary frequencies

                                  1           2           3           4           5
 Wavenumbers [cm-1]           51.84       51.02       49.75        0.01        0.00
 Intensities [km/mol]          0.00        0.00        0.00        0.00        0.00
 Intensities [relative]        0.00        0.00        0.00        0.00        0.00
           BX1              0.00032    -0.00000    -0.00000     0.00000    -0.00000
           BY1              0.00000     0.00000     0.00000     0.00000     0.26695
           BZ1             -0.00000    -0.00000     0.00001     0.26695    -0.00000
           HX2              0.57533    -0.00000    -0.00000     0.00000    -0.00000
           HY2              0.00000     0.00000     0.00000     0.00000     0.26695
           HZ2              0.00000     0.00000     0.81329     0.26695    -0.00000
           HX3             -0.28725     0.00000     0.00000     0.00000    -0.00000
           HY3             -0.49810     0.00000     0.00000     0.00000     0.26695
           HZ3              0.00000     0.70436    -0.40669     0.26694    -0.00000
           HX4             -0.28725     0.00000     0.00000     0.00000     0.00000
           HY4              0.49810    -0.00000     0.00000     0.00000     0.26695
           HZ4             -0.00000    -0.70436    -0.40669     0.26694    -0.00000


 Normal Modes of low/zero frequencies

                                  1
 Wavenumbers [cm-1]            0.06
 Intensities [km/mol]          0.00
 Intensities [relative]        0.00
           BX1              0.26695
           BY1              0.00000
           BZ1             -0.00000
           HX2              0.26627
           HY2              0.00000
           HZ2             -0.00000
           HX3              0.26729
           HY3              0.00058
           HZ3             -0.00000
           HX4              0.26729
           HY4             -0.00058
           HZ4             -0.00000


 Frequencies dumped to record   5400.2

 Zero point energy:  0.02677560 [H]     5876.57 [1/CM]       70.30 [KJ/MOL]
 Frequency information read from record  5400.2

 Recomputing wavefunction at initial geometry


 **********************************************************************************************************************************
 DATASETS  * FILE   NREC   LENGTH (MB)   RECORD NAMES
              1      20       28.75       500      610      700      900      950      970     1000      129      960     1100   
                                          VAR    BASINP    GEOM    SYMINP    ZMAT    AOBASIS   BASIS     P2S    ABASIS      S 
                                         1400     1410     1200     1210     1080     1600     1650     1700     1380     5200   
                                           T        V       H0       H01     AOSYM     SMH    MOLCAS    OPER     JKOP      MP2  

              2       8        0.46       700     1000      520     2100     4100     5300     5450     5400   
                                         GEOM     BASIS   MCVARS     RHF     CPHF     HESS     NMOD     FREQ   

 PROGRAMS   *        TOTAL      FREQ       MP2    HF-SCF       INT
 CPU TIMES  *         2.68      2.20      0.04      0.02      0.28
 REAL TIME  *         5.20 SEC
 DISK USED  *        41.65 MB (local),      344.79 MB (total)
 SF USED    *         0.29 MB
 GA USED    *         0.00 MB       (max)       0.00 MB       (current)
 **********************************************************************************************************************************

 MP2/DEF2-TZVP energy=    -26.506158962455

             MP2          HF-SCF
    -26.50615896    -26.40021092
 **********************************************************************************************************************************
 Molpro calculation terminated
