
Host: cff164

Timers On : Sat Aug 12 08:10:56 2023
Timers Off: Sat Aug 12 08:10:58 2023

Wall Time:        1.18 seconds

                                                       Time (seconds)
Module                                       User      System        Wall        Calls

--------------------------------------------------------------------------------------

**************************************************************************************
