
 Working directory              : /scratch/emmanous/bh3.MP2F12.VQZF12.com.50602/molpro.1fvjtGj3Nz/
 Global scratch directory       : /scratch/emmanous/bh3.MP2F12.VQZF12.com.50602/molpro.1fvjtGj3Nz/
 Wavefunction directory         : /home/emmanous/wfu/
 Main file repository           : /scratch/emmanous/bh3.MP2F12.VQZF12.com.50602/molpro.1fvjtGj3Nz/

 id        : wis

 Nodes     nprocs
 cff147       8
 GA implementation: MPI file
 GA implementation (serial work in mppx): MPI file

 Using DEFAULT tuning parameter for ncache   :   16384
 Using DEFAULT tuning parameter for mflopdgm :   10000
 Using DEFAULT tuning parameter for mflopdgv :    4000
 Using DEFAULT tuning parameter for mflopmxm :    5000
 Using DEFAULT tuning parameter for mflopmxv :    4000
 Using DEFAULT tuning parameter for mindgm   :       1
 Using DEFAULT tuning parameter for mindgc   :       4
 Using DEFAULT tuning parameter for mindgf   :    5000
 Using DEFAULT tuning parameter for mindgl   :       4
 Using DEFAULT tuning parameter for mindgr   :       1
 Using DEFAULT tuning parameter for mindgv   :      20
 Using DEFAULT tuning parameter for mincuda  :     500
 Using DEFAULT tuning parameter for mxmblk   :      64
 Using DEFAULT tuning parameter for mxmbln   :      64
 Using DEFAULT tuning parameter for nroll    :       2
 Using custom tuning parameter for ngpus     :       0
 Using customized tuning parameters: mindgm=1; mindgv=20; mindgc=4; mindgr=1; noblas=0; minvec=7

 Fortran compiler: integer size=8, double size=8, logical size=8
 default implementation of scratch files=sf  


 Variables initialized (1015), CPU time= 0.01 sec
 gthresh,energy=1d-12,gradient=1d-6,twoint=1d-18,prefac=1d-20
 noorient
 charge=0
 multiplicity=1
 geomtyp=xyz
 geom={
  B         -0.0000000000       -0.0000107613        0.0000000000
  H          0.0000000000        1.1891811079        0.0000000000
  H          1.0298423809       -0.5945851733        0.0000000000
  H         -1.0298423809       -0.5945851733        0.0000000000
 }
 MASS,ISO
 MASS,PRINT
 
 basis,vqz-f12
 df-hf
 df-mp2-f12,ansatz=3*C(FIX,HY1),cabs=0,cabs_singles=0,ri_basis=optri
 {freq,print=3;noproject}
 
 Commands initialized (834), CPU time= 0.01 sec, 672 directives.
 Default parameters read. Elapsed time= 0.06 sec

 Using DEFAULT tuning parameter for mpplat   :       3
 Using DEFAULT tuning parameter for mppspeed :    1600
 Checking input...
 Passed
1


                                         ***  PROGRAM SYSTEM MOLPRO  ***
                                       Copyright, TTI GmbH Stuttgart, 2015
                                    Version 2022.2 linked Thu May  5 23:39:45 2022


 **********************************************************************************************************************************
 LABEL *                                                                                 
  64 bit mpp version                                                                     DATE: 12-Aug-23          TIME: 10:20:14  
 **********************************************************************************************************************************

 SHA1:             518bf5c5e315925380b88506c70af759aa1d1d96
 **********************************************************************************************************************************

 Memory per process:      1500 MW
 Total memory per node:  12000 MW

 GA preallocation disabled
 GA check disabled

 Variable memory set to 1500.0 MW


 THRESHOLDS:

 ZERO    =  1.00D-12  ONEINT  =  1.00D-12  TWOINT  =  1.00D-18  PREFAC  =  1.00D-20  XXXXXX  =  1.00D-09  EORDER  =  1.00D-04
 ENERGY  =  1.00D-12  ETEST   =  0.00D+00  EDENS   =  0.00D+00  THRDEDEF=  1.00D-06  GRADIENT=  1.00D-06  STEP    =  1.00D-03
 ORBITAL =  1.00D-05  CIVEC   =  1.00D-05  COEFF   =  1.00D-04  PRINTCI =  5.00D-02  PUNCHCI =  9.90D+01  OPTGRAD =  3.00D-04
 OPTENERG=  1.00D-06  OPTSTEP =  3.00D-04  THRGRAD =  1.00D-10  COMPRESS=  1.00D-11  VARMIN  =  1.00D-07  VARMAX  =  1.00D-03
 THRDOUB =  0.00D+00  THRDIV  =  1.00D-05  THRRED  =  1.00D-07  THRPSP  =  1.00D+00  THRDC   =  1.00D-10  THRCS   =  1.00D-10
 THRNRM  =  1.00D-08  THREQ   =  0.00D+00  THRDE   =  1.00D+00  THRREF  =  1.00D-05  SPARFAC =  1.00D+00  THRDLP  =  1.00D-07
 THRDIA  =  1.00D-10  THRDLS  =  1.00D-07  THRGPS  =  0.00D+00  THRKEX  =  0.00D+00  THRDIS  =  2.00D-01  THRVAR  =  1.00D-10
 THRLOC  =  1.00D-06  THRGAP  =  1.00D-06  THRLOCT = -1.00D+00  THRGAPT = -1.00D+00  THRORB  =  1.00D-06  THRMLTP =  0.00D+00
 THRCPQCI=  1.00D-10  KEXTA   =  0.00D+00  THRCOARS=  0.00D+00  SYMTOL  =  1.00D-06  GRADTOL =  1.00D-06  THROVL  =  1.00D-08
 THRORTH =  1.00D-08  THRDLOVL= -1.00D+00  GRID    =  1.00D-06  GRIDMAX =  1.00D-03  DTMAX   =  0.00D+00  THROCCDE=  1.00D-01
 THROCCDE=  1.00D-01  THRPRINT=  2.50D-01

 SETTING CHARGE         =      0.0000000D+00                                  
 SETTING MULTIPLICITY   =         1.00000000                                  
 SETTING GEOMTYP        =    XYZ

 Turning off symmetry in density fitting calculation
 To re-enable, use 'symmetry,auto'



 Using masses of most abundant isotopes

 **********************************************************************************************************************************


 Atomic masses

 Center       Mass
 B         11.00931
 H          1.00782
 H          1.00782
 H          1.00782
 SETTING BASIS          =    VQZ-F12


 Recomputing integrals since basis changed


 Using spherical harmonics

 Library entry B      S cc-pVQZ-F12          selected for orbital group  1
 Library entry B      P cc-pVQZ-F12          selected for orbital group  1
 Library entry B      D cc-pVQZ-F12          selected for orbital group  1
 Library entry B      F cc-pVQZ-F12          selected for orbital group  1
 Library entry B      G cc-pVQZ-F12          selected for orbital group  1
 Library entry H      S cc-pVQZ-F12          selected for orbital group  2
 Library entry H      P cc-pVQZ-F12          selected for orbital group  2
 Library entry H      D cc-pVQZ-F12          selected for orbital group  2
 Library entry H      F cc-pVQZ-F12          selected for orbital group  2


 PROGRAM * SEWARD (Integral evaluation for generally contracted gaussian basis sets)     Author: Roland Lindh, 1990

 Geometry written to block  1 of record 700


 Point group  C1  



 ATOMIC COORDINATES

 NR  ATOM    CHARGE       X              Y              Z

   1  B       5.00   -0.000000000   -0.000020336    0.000000000
   2  H       1.00    0.000000000    2.247226607    0.000000000
   3  H       1.00    1.946120051   -1.123603135    0.000000000
   4  H       1.00   -1.946120051   -1.123603135    0.000000000

 Bond lengths in Bohr (Angstrom)

 1-2  2.247246942  1-3  2.247180803  1-4  2.247180803
     ( 1.189191869)     ( 1.189156870)     ( 1.189156870)

 Bond angles

  2-1-3  119.99977618   2-1-4  119.99977618   3-1-4  120.00044763

 NUCLEAR CHARGE:                    8
 NUMBER OF PRIMITIVE AOS:         252
 NUMBER OF SYMMETRY AOS:          212
 NUMBER OF CONTRACTIONS:          189   (  189A   )
 NUMBER OF INNER CORE ORBITALS:     0   (    0A   )
 NUMBER OF OUTER CORE ORBITALS:     1   (    1A   )
 NUMBER OF VALENCE ORBITALS:        7   (    7A   )


 NUCLEAR REPULSION ENERGY    7.44572339

 EXTRA SYMMETRY OF AOS IN SYMMETRY 1:   1 1 1 1 1 1 1 1 1 2   1 1 2 1 1 2 1 1 2 1   1 2 1 1 2 1 1 2 1 1   2 1 2 1 1 2 1 2 1 1
                                        2 1 2 1 1 2 1 2 1 1   2 1 2 1 2 1 1 2 1 2   1 2 1 1 2 1 2 1 2 1   1 2 1 2 1 1 2 2 1 1
                                        2 1 2 1 1 2 2 1 1 1   1 1 1 1 2 1 1 2 1 1   2 1 1 2 1 1 2 1 2 1   1 2 1 2 1 1 2 1 2 1
                                        2 1 1 1 1 1 1 1 2 1   1 2 1 1 2 1 1 2 1 1   2 1 2 1 1 2 1 2 1 1   2 1 2 1 2 1 1 1 1 1
                                        1 1 2 1 1 2 1 1 2 1   1 2 1 1 2 1 2 1 1 2   1 2 1 1 2 1 2 1 2

 Eigenvalues of metric

         1 0.253E-04 0.368E-04 0.368E-04 0.130E-03 0.167E-03 0.167E-03 0.270E-03 0.270E-03


 OPERATOR DM      FOR CENTER  0  COORDINATES:    0.000000    0.000000    0.000000


 **********************************************************************************************************************************
 DATASETS  * FILE   NREC   LENGTH (MB)   RECORD NAMES
              1      18       29.89       500      610      700      900      950      970     1000      129      960     1100   
                                          VAR    BASINP    GEOM    SYMINP    ZMAT    AOBASIS   BASIS     P2S    ABASIS      S 
                                         1400     1410     1200     1210     1080     1600     1650     1700   
                                           T        V       H0       H01     AOSYM     SMH    MOLCAS    OPER   

 PROGRAMS   *        TOTAL       INT
 CPU TIMES  *         0.40      0.28
 REAL TIME  *         1.34 SEC
 DISK USED  *        30.25 MB (local),      241.98 MB (total)
 GA USED    *         0.00 MB       (max)       0.00 MB       (current)
 **********************************************************************************************************************************


 Program * Restricted Hartree-Fock

 Basis set VQZ-F12/JKFIT generated.      Number of basis functions:   370 
 Coulomb and exchange fitting
 Thresholds for fitting:       THRAO_COUL= 1.0D-15    THRAO_EXCH= 1.0D-13    THRMO= 1.0D-12    THRPROD= 1.0D-12    THRASM= 1.0D-12
                               THR2HLF=    1.0D-12

 Basis set VQZ-F12-JKFIT loaded. Number of basis functions: 370

 Orbital guess generated from atomic densities. Full valence occupancy:    8
 Using density fitting in orbital guess


 Initial occupancy:   4

 NELEC=    8   SYM=1   MS2= 0   THRE=1.0D-12   THRD=1.0D-06   THRG=1.0D-06  HFMA2=F  DIIS_START=2   DIIS_MAX=10   DIIS_INCORE=F

 Level shifts:    0.00 (CLOSED)    0.00 (OPEN)    0.30 (GAP_MIN)

 ITER           ETOT              DE          GRAD        DDIFF     DIIS  NEXP   TIME(IT)  TIME(TOT)  DIAG
   1      -26.39656317     -26.39656317     0.00D+00     0.32D-01     0     0       0.03      0.08    start
   2      -26.40219467      -0.00563150     0.22D-02     0.15D-02     1     0       0.03      0.11    diag
   3      -26.40252119      -0.00032652     0.50D-03     0.42D-03     2     0       0.04      0.15    diag
   4      -26.40253551      -0.00001433     0.96D-04     0.94D-04     3     0       0.03      0.18    diag
   5      -26.40253585      -0.00000033     0.13D-04     0.13D-04     4     0       0.03      0.21    diag
   6      -26.40253586      -0.00000001     0.18D-05     0.21D-05     5     0       0.04      0.25    diag
   7      -26.40253586      -0.00000000     0.27D-06     0.70D-06     6     0       0.03      0.28    diag
   8      -26.40253586      -0.00000000     0.27D-07     0.11D-06     7     0       0.03      0.31    fixocc
   9      -26.40253586      -0.00000000     0.22D-08     0.86D-08     8     0       0.03      0.34    diag
  10      -26.40253586      -0.00000000     0.12D-09     0.69D-09     0     0       0.04      0.38    diag/orth

 Final occupancy:   4

 !RHF STATE 1.1 Energy                -26.402535855884
  RHF One-electron energy             -49.070321594333
  RHF Two-electron energy              15.222062352118
  RHF Kinetic energy                   26.393676961561
  RHF Nuclear energy                    7.445723386331
  RHF Virial quotient                  -1.000335644569

 !RHF STATE 1.1 Dipole moment          -0.00000000    -0.00002248     0.00000000
 Dipole moment /Debye                  -0.00000000    -0.00005714     0.00000000

 Orbital energies:

           1.1          2.1          3.1          4.1          5.1          6.1
     -7.610922    -0.704644    -0.498770    -0.498763     0.025317     0.037132


 HOMO      4.1    -0.498763 =     -13.5720eV
 LUMO      5.1     0.025317 =       0.6889eV
 LUMO-HOMO         0.524080 =      14.2609eV

 Orbitals saved in record  2100.2


 **********************************************************************************************************************************
 DATASETS  * FILE   NREC   LENGTH (MB)   RECORD NAMES
              1      18       29.89       500      610      700      900      950      970     1000      129      960     1100   
                                          VAR    BASINP    GEOM    SYMINP    ZMAT    AOBASIS   BASIS     P2S    ABASIS      S 
                                         1400     1410     1200     1210     1080     1600     1650     1700   
                                           T        V       H0       H01     AOSYM     SMH    MOLCAS    OPER   

              2       4        0.97       700     1000      520     2100   
                                         GEOM     BASIS   MCVARS     RHF  

 PROGRAMS   *        TOTAL     DF-HF       INT
 CPU TIMES  *         0.93      0.52      0.28
 REAL TIME  *         2.09 SEC
 DISK USED  *        33.26 MB (local),      266.07 MB (total)
 SF USED    *         4.27 MB
 GA USED    *         0.00 MB       (max)       0.00 MB       (current)
 **********************************************************************************************************************************


 PROGRAM * MP2 (Closed-shell)     Authors: C. Hampel, H.-J. Werner, 1991, M. Deegan, P.J. Knowles, 1992

                                   MP2-F12 implementation by H.-J. Werner, 2007

                   Density fitting integral evaluation by F.R. Manby, 2003,2007, G. Knizia, 2010


 Basis set CC-PVQZ-F12/OPTRI generated.  Number of basis functions:   236 
 Basis set CC-PVQZ-F12/CABS generated.   Number of basis functions:   425 
 Basis set VQZ-F12/MP2FIT generated.     Number of basis functions:   408 

 Convergence thresholds:  THRVAR = 1.00D-16  THRDEN = 1.00D-12

 Using ITF DF-MP2-F12 gradient implementation

 Number of core orbitals:           1 (   1 )
 Number of closed-shell orbitals:   3 (   3 )
 Number of external orbitals:     185 ( 185 )

 Molecular orbitals read from record     2100.2  Type=RHF/CANONICAL  
 Ansatz: F12/3*C(FIX,HY1)
 Enter DF-MP2-F12 [ITF]

 Geminal basis:    OPTFULL  GEM_TYPE=SLATER  BETA=1.0  NGEM=6

 Optimizing Gaussian exponents for each gem_beta

 Geminal optimization for beta= 1.0000
 Weight function:   m=0, omega= 1.4646

 Augmented Hessian optimization of geminal fit. Trust ratio= 0.40000
 Convergence reached after   2 iterations. Final gradient= 8.66D-16, Step= 4.23D-06, Delta= 1.28D-09

 Alpha:                 0.19532     0.81920     2.85917     9.50073    35.69989   197.79328
 Coeff:                 0.27070     0.30552     0.18297     0.10986     0.06810     0.04224


  SCS-MP2 correlation energy:           -0.13425922   (PS=  1.200000  PT=  0.333333)
  SCS-MP2 total energy                -26.536795080504

  Norm of first-order wave function     0.036258576100

  Reference energy                    -26.402535855884
  MP2 singlet pair energy              -0.102624218822
  MP2 triplet pair energy              -0.017855617555
  MP2 correlation energy               -0.120479836377
 !MP2 total energy                    -26.523015692261


  DF-MP2-F12 energy corrections:
  ==============================
  Approx.                                    Total
  DF-MP2-F12/3*C(DX,FIX):              -0.005304160923
  DF-MP2-F12/3*C(FIX):                 -0.005231172789

  DF-MP2-F12 correlation energies:
  ================================
  Approx.                                    Ecorr
  DF-MP2:                              -0.120479836377
  DF-MP2-F12/3*C(DX,FIX):              -0.125783997300
  DF-MP2-F12/3*C(FIX):                 -0.125711009166

  Reference energy                    -26.402535855884
  MP2-F12 correlation energy           -0.125711009166

 !MP2-F12 total energy                -26.528246865049


 ===============================================================
 One-body density matrix check:   DF-MP2-F12 energy corrections:
  DF-MP2-F12/3*C(FIX)(1rdm):           -0.005231172789
 ===============================================================

 Starting coupled-perturbed Hartree-Fock, convergence threshold= 1e-06

 ITER   MIC  DIIS         VAR       VAReC       VARec      CPU
    1           1    9.88e-03    5.09e-04    9.86e-03     0.02
    2           2    2.99e-03    1.76e-05    2.99e-03     0.05
    3           3    6.26e-04    1.34e-05    6.26e-04     0.08
    4           4    7.74e-05    1.75e-06    7.74e-05     0.11
    5           5    4.88e-06    3.21e-07    4.87e-06     0.14
    6                4.16e-07    2.12e-08    4.16e-07     0.16

 CPHF convergence reached in 6 macroiterations. Accuracy: 4.16e-07
  Timings in the CPHF solver


 Dipole moments (unrelaxed,MP2):       -0.00000000     0.00000022    -0.00000000
 Dipole moments (unrelaxed,F12):       -0.00000000     0.00000000     0.00000000

 CPHF solution written to record  8500.2

 Dipole moments (unrelaxed):           -0.00000000    -0.00002226     0.00000000
 Orbital relaxation contribution:      -0.00000000     0.00000292    -0.00000000
 ! STATE 1.1 Dipole moment             -0.00000000    -0.00001934    -0.00000000
 Dipole moment /Debye                  -0.00000000    -0.00004916    -0.00000000

 Number of N-1 electron functions:               3
 Number of N-2 electron functions:               6
 Number of singly external CSFs:               555
 Number of doubly external CSFs:            154290
 Total number of CSFs:                      154846

 DF-MP2-F12 gradient info saved on record        55555.1




 **********************************************************************************************************************************
 DATASETS  * FILE   NREC   LENGTH (MB)   RECORD NAMES
              1      19       30.72       500      610      700      900      950      970     1000      129      960     1100   
                                          VAR    BASINP    GEOM    SYMINP    ZMAT    AOBASIS   BASIS     P2S    ABASIS      S 
                                         1400     1410     1200     1210     1080     1600     1650     1700    55555   
                                           T        V       H0       H01     AOSYM     SMH    MOLCAS    OPER      MP2  

              2       6        2.07       700     1000      520     2100    57001     8500   
                                         GEOM     BASIS   MCVARS     RHF              CPHF   

 PROGRAMS   *        TOTAL   MP2-F12     DF-HF       INT
 CPU TIMES  *        24.62     23.69      0.52      0.28
 REAL TIME  *        33.21 SEC
 DISK USED  *        33.26 MB (local),      266.07 MB (total)
 SF USED    *         9.57 GB
 GA USED    *         0.00 MB       (max)       0.00 MB       (current)
 **********************************************************************************************************************************


 PROGRAM * HESSIAN

 *** Long output written to logfile /gpfs01/work/emmanous/6Frequencies/implementation/MOLPRO/G4-Tano-F12-v2/EXAMPLE_BH3/bh3.MP2F12.VQZF12.log ***


 Computing numerical hessian using default procedure for command DF-MP2-F12

 Symmetry elements for unique displacements: X  Z  

 Using no symmetry in wavefunction calculations

 Running default procedure: DF-HF-SCF000  DF-MP2-F12


 Numerically approximating hessian using central gradient differences

 Task list generated. Total number of displacements:     13

 All  13 tasks completed.  CPU=    228.68 sec, Elapsed=    521.72 sec.

 DF-MP2-F12 hessian saved to record  5300.2

 PROGRAM * FREQUENCIES (Calculation of harmonic vibrational spectra for DF-MP2-F12)


 Permanent Dipole Moment [debye]
   1-  3    0.000000   -0.000049    0.000000

 Dipole Moment Norm    0.0000492 [debye]

 Dipole Moment Derivatives [debye/ang]
              1             2             3             4             5             6             7             8
    1    2.64056554   -0.00000001    0.00000000   -0.46218529   -0.00000001    0.00000000   -1.08926889    0.36212759
    2    0.00000000    2.64070540    0.00000000    0.00000000   -1.29839917    0.00000000    0.36208223   -0.67118065
    3    0.00000000    0.00000000    2.23578388    0.00000000    0.00000000   -0.74532485    0.00000000    0.00000767
              9            10            11            12
    1    0.00000000   -1.08926889   -0.36212759    0.00000000
    2    0.00000000   -0.36208223   -0.67118065    0.00000000
    3   -0.74528620    0.00000000    0.00000767   -0.74528620

 Force Constants (Second Derivatives of the Energy) in [a.u.]
                             BX1         BY1         BZ1         HX2         HY2     
           BX1           0.4247617
           BY1          -0.0000000   0.4247077
           BZ1           0.0000000  -0.0000000   0.1251056
           HX2          -0.0428755   0.0000000   0.0000000   0.0353228
           HY2          -0.0000000  -0.2402703   0.0000000  -0.0000000   0.2516018
           HZ2           0.0000000   0.0000000  -0.0417058   0.0000000   0.0000000
           HX3          -0.1909426   0.0854894  -0.0000000   0.0037764  -0.0013472
           HY3           0.0854901  -0.0922186   0.0000000   0.0177018  -0.0056661
           HZ3           0.0000000  -0.0000000  -0.0417000   0.0000000  -0.0000000
           HX4          -0.1909426  -0.0854894   0.0000000   0.0037764   0.0013472
           HY4          -0.0854901  -0.0922186   0.0000000  -0.0177018  -0.0056661
           HZ4          -0.0000000  -0.0000000  -0.0417000  -0.0000000  -0.0000000
                             HZ2         HX3         HY3         HZ3         HX4     
           HZ2           0.0144929
           HX3           0.0000000   0.1975528
           HY3          -0.0000000  -0.0936667   0.0893869
           HZ3           0.0136063   0.0000000   0.0000000   0.0144872
           HX4          -0.0000000  -0.0103871  -0.0095245   0.0000000   0.1975528
           HY4          -0.0000000   0.0095245   0.0084981  -0.0000000   0.0936667
           HZ4           0.0136063  -0.0000000  -0.0000000   0.0136066  -0.0000000
                             HY4         HZ4     
           HY4           0.0893869
           HZ4           0.0000000   0.0144872


 Atomic Masses
   1-  4   11.009310    1.007825    1.007825    1.007825

 Mass weighted Second Derivative Matrix
                             BX1         BY1         BZ1         HX2         HY2     
           BX1           0.0385820
           BY1          -0.0000000   0.0385771
           BZ1           0.0000000  -0.0000000   0.0113636
           HX2          -0.0128717   0.0000000   0.0000000   0.0350485
           HY2          -0.0000000  -0.0721319   0.0000000  -0.0000000   0.2496483
           HZ2           0.0000000   0.0000000  -0.0125206   0.0000000   0.0000000
           HX3          -0.0573232   0.0256649  -0.0000000   0.0037470  -0.0013367
           HY3           0.0256651  -0.0276851   0.0000000   0.0175644  -0.0056221
           HZ3           0.0000000  -0.0000000  -0.0125188   0.0000000  -0.0000000
           HX4          -0.0573232  -0.0256649   0.0000000   0.0037470   0.0013368
           HY4          -0.0256651  -0.0276851   0.0000000  -0.0175644  -0.0056221
           HZ4          -0.0000000  -0.0000000  -0.0125188  -0.0000000  -0.0000000
                             HZ2         HX3         HY3         HZ3         HX4     
           HZ2           0.0143804
           HX3           0.0000000   0.1960189
           HY3          -0.0000000  -0.0929394   0.0886928
           HZ3           0.0135007   0.0000000   0.0000000   0.0143747
           HX4          -0.0000000  -0.0103064  -0.0094505   0.0000000   0.1960189
           HY4          -0.0000000   0.0094505   0.0084321  -0.0000000   0.0929394
           HZ4           0.0135007  -0.0000000  -0.0000000   0.0135010  -0.0000000
                             HY4         HZ4     
           HY4           0.0886928
           HZ4           0.0000000   0.0143747


 Mass Weighted 2nd Derivative Matrix Eigenvalues
   1- 10    0.000000    0.000000    0.000000    0.000871    0.000874    0.000878    0.052742    0.058352    0.058361    0.252973
  11- 12    0.280351    0.280372

 Mass Weighted 2nd Derivative Matrix Eigenvectors
              1             2             3             4             5             6             7             8
    1    0.88569322   -0.00058607   -0.00945031   -0.00009413    0.00000051    0.00000000    0.00000000   -0.00001614
    2    0.00946350    0.02611804    0.88530843   -0.00000146    0.00000000   -0.00000264   -0.00000075   -0.31355686
    3    0.00030711    0.88535860   -0.02612285    0.00000000    0.00000042   -0.00006478   -0.46417415    0.00000096
    4    0.26805596   -0.00017735   -0.00285922    0.57722717   -0.00154842    0.00000003    0.00000000    0.00003970
    5    0.00286329    0.00790231    0.26786025   -0.00000042    0.00000000   -0.00000080   -0.00000020   -0.08026355
    6    0.00009298    0.26795810   -0.00790374    0.00000006    0.00003675    0.81644061    0.51143007   -0.00000113
    7    0.26793585   -0.00017732   -0.00285989   -0.28872007    0.00077456    0.00000001    0.00000074    0.36867115
    8    0.00279215    0.00790228    0.26785832   -0.50004196    0.00134131   -0.00000076    0.00000114    0.55832582
    9    0.00009271    0.26783232   -0.00790363    0.00189677    0.70708606   -0.40833596    0.51136173   -0.00000102
   10    0.26793586   -0.00017729   -0.00285883   -0.28872007    0.00077456   -0.00000004   -0.00000074   -0.36865750
   11    0.00293439    0.00790223    0.26785845    0.50004107   -0.00134131   -0.00000071    0.00000114    0.55828788
   12    0.00009308    0.26783301   -0.00790365   -0.00189683   -0.70712241   -0.40827255    0.51136174   -0.00000102
              9            10            11            12
    1   -0.31354724    0.00000013    0.00021456   -0.34226590
    2    0.00001616   -0.00017053   -0.34225618   -0.00021453
    3    0.00000000   -0.00000001    0.00000000    0.00000000
    4    0.77121789    0.00000000    0.00000810   -0.01292885
    5    0.00000413    0.57771984    0.76679695    0.00048092
    6    0.00000000    0.00000003   -0.00000001    0.00000000
    7    0.13253056    0.49984172   -0.33835951    0.57186591
    8    0.36859868   -0.28857899    0.18241155   -0.33762909
    9    0.00000008    0.00000001    0.00000000   -0.00000001
   10    0.13256851   -0.49984216    0.33764227    0.57228930
   11   -0.36865614   -0.28857927    0.18198808    0.33785731
   12   -0.00000007    0.00000001    0.00000000    0.00000001

 Imaginary Vibration  Wavenumber
        Nr             [1/cm] 
        1                0.02
        2                0.02
        3                0.00

     Vibration        Wavenumber
        Nr             [1/cm] 
        1              151.69
        2              151.95
        3              152.31
        4             1180.54
        5             1241.74
        6             1241.84
        7             2585.48
        8             2721.79
        9             2721.90

 FREQUENCIES * CALCULATION OF NORMAL MODES FOR DF-MP2-F12


 Atomic Coordinates

  Nr  Atom  Charge       X              Y              Z

   1   B     5.00    0.000000000   -0.000020336    0.000000000
   2   H     1.00    0.000000000    2.247226607    0.000000000
   3   H     1.00    1.946120051   -1.123603135    0.000000000
   4   H     1.00   -1.946120051   -1.123603135    0.000000000

 Normal Modes

                              1 Err       2 Err       3 B1        4 B1        5 A1 
 Wavenumbers [cm-1]          151.69      151.95      152.31     1180.54     1241.74
 Intensities [km/mol]          0.00        0.00        0.00       89.06       16.58
 Intensities [relative]        0.00        0.00        0.00       68.69       12.79
           BX1             -0.00003     0.00000    -0.00000    -0.00000    -0.00000
           BY1             -0.00000     0.00000    -0.00000    -0.00000    -0.09450
           BZ1              0.00000     0.00000    -0.00002    -0.13989     0.00000
           HX2              0.57498    -0.00154     0.00000     0.00000     0.00004
           HY2             -0.00000     0.00000    -0.00000    -0.00000    -0.07995
           HZ2              0.00000     0.00004     0.81326     0.50944    -0.00000
           HX3             -0.28760     0.00077     0.00000     0.00000     0.36724
           HY3             -0.49810     0.00134    -0.00000     0.00000     0.55615
           HZ3              0.00189     0.70434    -0.40675     0.50937    -0.00000
           HX4             -0.28760     0.00077    -0.00000    -0.00000    -0.36722
           HY4              0.49810    -0.00134    -0.00000     0.00000     0.55612
           HZ4             -0.00189    -0.70437    -0.40668     0.50937    -0.00000

                              6 B2        7 Err       8 Err       9 Err
 Wavenumbers [cm-1]         1241.84     2585.48     2721.79     2721.90
 Intensities [km/mol]         16.57        0.00      129.64      129.64
 Intensities [relative]       12.78        0.00      100.00      100.00
           BX1             -0.09450     0.00000     0.00006    -0.10315
           BY1              0.00000    -0.00005    -0.10315    -0.00006
           BZ1             -0.00000    -0.00000     0.00000     0.00000
           HX2              0.76822     0.00000     0.00001    -0.01288
           HY2              0.00000     0.57547     0.76381     0.00048
           HZ2              0.00000     0.00000    -0.00000    -0.00000
           HX3              0.13202     0.49790    -0.33704     0.56964
           HY3              0.36716    -0.28746     0.18170    -0.33632
           HZ3              0.00000     0.00000    -0.00000    -0.00000
           HX4              0.13205    -0.49790     0.33633     0.57006
           HY4             -0.36722    -0.28746     0.18128     0.33654
           HZ4             -0.00000     0.00000    -0.00000     0.00000


 Normal Modes of imaginary frequencies

                                  1           2           3
 Wavenumbers [cm-1]            0.02        0.02        0.00
 Intensities [km/mol]          0.00        0.00        0.00
 Intensities [relative]        0.00        0.00        0.00
           BX1              0.26693    -0.00018    -0.00285
           BY1              0.00285     0.00787     0.26682
           BZ1              0.00009     0.26683    -0.00787
           HX2              0.26701    -0.00018    -0.00285
           HY2              0.00285     0.00787     0.26682
           HZ2              0.00009     0.26692    -0.00787
           HX3              0.26689    -0.00018    -0.00285
           HY3              0.00278     0.00787     0.26682
           HZ3              0.00009     0.26679    -0.00787
           HX4              0.26689    -0.00018    -0.00285
           HY4              0.00292     0.00787     0.26682
           HZ4              0.00009     0.26679    -0.00787


 Normal Modes of low/zero frequencies


 Wavenumbers [cm-1]
 Intensities [km/mol]
 Intensities [relative]
           BX1     
           BY1     
           BZ1     
           HX2     
           HY2     
           HZ2     
           HX3     
           HY3     
           HZ3     
           HX4     
           HY4     
           HZ4     


 Frequencies dumped to record   5400.2

 Zero point energy:  0.02767802 [H]     6074.62 [1/CM]       72.67 [KJ/MOL]
 Frequency information read from record  5400.2

 Recomputing wavefunction at initial geometry


 **********************************************************************************************************************************
 DATASETS  * FILE   NREC   LENGTH (MB)   RECORD NAMES
              1      19       30.72       500      610      700      900      950      970     1000      129      960     1100   
                                          VAR    BASINP    GEOM    SYMINP    ZMAT    AOBASIS   BASIS     P2S    ABASIS      S 
                                         1400     1410     1200     1210     1080     1600     1650     1700    55555   
                                           T        V       H0       H01     AOSYM     SMH    MOLCAS    OPER      MP2  

              2       9        2.08       700     1000      520     2100    57001     8500     5300     5450     5400   
                                         GEOM     BASIS   MCVARS     RHF              CPHF     HESS     NMOD     FREQ   

 PROGRAMS   *        TOTAL      FREQ   MP2-F12     DF-HF       INT
 CPU TIMES  *       256.63    231.98     23.69      0.52      0.28
 REAL TIME  *       590.61 SEC
 DISK USED  *         9.60 GB (local),       76.79 GB (total)
 SF USED    *         9.57 GB
 GA USED    *         0.00 MB       (max)       0.00 MB       (current)
 **********************************************************************************************************************************

 DF-MP2-F12/cc-pVQZ-F12 energy=    -26.528246865043

      DF-MP2-F12           DF-HF
    -26.52824687    -26.40253586
 **********************************************************************************************************************************
 Molpro calculation terminated
