
 Working directory              : /scratch/emmanous/hf.MP2F12.VQZF12.com.50973/molpro.SYirIoctAd/
 Global scratch directory       : /scratch/emmanous/hf.MP2F12.VQZF12.com.50973/molpro.SYirIoctAd/
 Wavefunction directory         : /home/emmanous/wfu/
 Main file repository           : /scratch/emmanous/hf.MP2F12.VQZF12.com.50973/molpro.SYirIoctAd/

 id        : wis

 Nodes     nprocs
 cff164       8
 GA implementation: MPI file
 GA implementation (serial work in mppx): MPI file

 Using DEFAULT tuning parameter for ncache   :   16384
 Using DEFAULT tuning parameter for mflopdgm :   10000
 Using DEFAULT tuning parameter for mflopdgv :    4000
 Using DEFAULT tuning parameter for mflopmxm :    5000
 Using DEFAULT tuning parameter for mflopmxv :    4000
 Using DEFAULT tuning parameter for mindgm   :       1
 Using DEFAULT tuning parameter for mindgc   :       4
 Using DEFAULT tuning parameter for mindgf   :    5000
 Using DEFAULT tuning parameter for mindgl   :       4
 Using DEFAULT tuning parameter for mindgr   :       1
 Using DEFAULT tuning parameter for mindgv   :      20
 Using DEFAULT tuning parameter for mincuda  :     500
 Using DEFAULT tuning parameter for mxmblk   :      64
 Using DEFAULT tuning parameter for mxmbln   :      64
 Using DEFAULT tuning parameter for nroll    :       2
 Using custom tuning parameter for ngpus     :       0
 Using customized tuning parameters: mindgm=1; mindgv=20; mindgc=4; mindgr=1; noblas=0; minvec=7

 Fortran compiler: integer size=8, double size=8, logical size=8
 default implementation of scratch files=sf  


 Variables initialized (1015), CPU time= 0.00 sec
 gthresh,energy=1d-12,gradient=1d-6,twoint=1d-18,prefac=1d-20
 noorient
 charge=0
 multiplicity=1
 geomtyp=xyz
 geom={
  F          0.0000000000        0.0000000000        0.0926208203
  H          0.0000000000        0.0000000000       -0.8252358203
 }
 MASS,ISO
 MASS,PRINT
 
 basis,vqz-f12
 df-hf
 df-mp2-f12,ansatz=3*C(FIX,HY1),cabs=0,cabs_singles=0,ri_basis=optri
 {freq,print=3;noproject}
 
 Commands initialized (834), CPU time= 0.01 sec, 672 directives.
 Default parameters read. Elapsed time= 0.07 sec

 Using DEFAULT tuning parameter for mpplat   :       3
 Using DEFAULT tuning parameter for mppspeed :    1600
 Checking input...
 Passed
1


                                         ***  PROGRAM SYSTEM MOLPRO  ***
                                       Copyright, TTI GmbH Stuttgart, 2015
                                    Version 2022.2 linked Thu May  5 23:39:45 2022


 **********************************************************************************************************************************
 LABEL *                                                                                 
  64 bit mpp version                                                                     DATE: 12-Aug-23          TIME: 10:22:08  
 **********************************************************************************************************************************

 SHA1:             518bf5c5e315925380b88506c70af759aa1d1d96
 **********************************************************************************************************************************

 Memory per process:      1500 MW
 Total memory per node:  12000 MW

 GA preallocation disabled
 GA check disabled

 Variable memory set to 1500.0 MW


 THRESHOLDS:

 ZERO    =  1.00D-12  ONEINT  =  1.00D-12  TWOINT  =  1.00D-18  PREFAC  =  1.00D-20  XXXXXX  =  1.00D-09  EORDER  =  1.00D-04
 ENERGY  =  1.00D-12  ETEST   =  0.00D+00  EDENS   =  0.00D+00  THRDEDEF=  1.00D-06  GRADIENT=  1.00D-06  STEP    =  1.00D-03
 ORBITAL =  1.00D-05  CIVEC   =  1.00D-05  COEFF   =  1.00D-04  PRINTCI =  5.00D-02  PUNCHCI =  9.90D+01  OPTGRAD =  3.00D-04
 OPTENERG=  1.00D-06  OPTSTEP =  3.00D-04  THRGRAD =  1.00D-10  COMPRESS=  1.00D-11  VARMIN  =  1.00D-07  VARMAX  =  1.00D-03
 THRDOUB =  0.00D+00  THRDIV  =  1.00D-05  THRRED  =  1.00D-07  THRPSP  =  1.00D+00  THRDC   =  1.00D-10  THRCS   =  1.00D-10
 THRNRM  =  1.00D-08  THREQ   =  0.00D+00  THRDE   =  1.00D+00  THRREF  =  1.00D-05  SPARFAC =  1.00D+00  THRDLP  =  1.00D-07
 THRDIA  =  1.00D-10  THRDLS  =  1.00D-07  THRGPS  =  0.00D+00  THRKEX  =  0.00D+00  THRDIS  =  2.00D-01  THRVAR  =  1.00D-10
 THRLOC  =  1.00D-06  THRGAP  =  1.00D-06  THRLOCT = -1.00D+00  THRGAPT = -1.00D+00  THRORB  =  1.00D-06  THRMLTP =  0.00D+00
 THRCPQCI=  1.00D-10  KEXTA   =  0.00D+00  THRCOARS=  0.00D+00  SYMTOL  =  1.00D-06  GRADTOL =  1.00D-06  THROVL  =  1.00D-08
 THRORTH =  1.00D-08  THRDLOVL= -1.00D+00  GRID    =  1.00D-06  GRIDMAX =  1.00D-03  DTMAX   =  0.00D+00  THROCCDE=  1.00D-01
 THROCCDE=  1.00D-01  THRPRINT=  2.50D-01

 SETTING CHARGE         =      0.0000000D+00                                  
 SETTING MULTIPLICITY   =         1.00000000                                  
 SETTING GEOMTYP        =    XYZ

 Turning off symmetry in density fitting calculation
 To re-enable, use 'symmetry,auto'



 Using masses of most abundant isotopes

 **********************************************************************************************************************************


 Atomic masses

 Center       Mass
 F         18.99840
 H          1.00782
 SETTING BASIS          =    VQZ-F12


 Recomputing integrals since basis changed


 Using spherical harmonics

 Library entry F      S cc-pVQZ-F12          selected for orbital group  1
 Library entry F      P cc-pVQZ-F12          selected for orbital group  1
 Library entry F      D cc-pVQZ-F12          selected for orbital group  1
 Library entry F      F cc-pVQZ-F12          selected for orbital group  1
 Library entry F      G cc-pVQZ-F12          selected for orbital group  1
 Library entry H      S cc-pVQZ-F12          selected for orbital group  2
 Library entry H      P cc-pVQZ-F12          selected for orbital group  2
 Library entry H      D cc-pVQZ-F12          selected for orbital group  2
 Library entry H      F cc-pVQZ-F12          selected for orbital group  2


 PROGRAM * SEWARD (Integral evaluation for generally contracted gaussian basis sets)     Author: Roland Lindh, 1990

 Geometry written to block  1 of record 700


 Point group  C1  



 ATOMIC COORDINATES

 NR  ATOM    CHARGE       X              Y              Z

   1  F       9.00    0.000000000    0.000000000    0.175027984
   2  H       1.00    0.000000000    0.000000000   -1.559469689

 Bond lengths in Bohr (Angstrom)

 1-2  1.734497672
     ( 0.917856641)

 NUCLEAR CHARGE:                   10
 NUMBER OF PRIMITIVE AOS:         168
 NUMBER OF SYMMETRY AOS:          138
 NUMBER OF CONTRACTIONS:          121   (  121A   )
 NUMBER OF INNER CORE ORBITALS:     0   (    0A   )
 NUMBER OF OUTER CORE ORBITALS:     1   (    1A   )
 NUMBER OF VALENCE ORBITALS:        5   (    5A   )


 NUCLEAR REPULSION ENERGY    5.18882218

 EXTRA SYMMETRY OF AOS IN SYMMETRY 1:   1 1 1 1 1 1 1 2 3 1   2 3 1 2 3 1 2 3 1 2   3 1 2 3 1 2 3 1 1 4   2 5 3 1 4 2 5 3 1 4
                                        2 5 3 1 4 2 5 3 2 3   1 6 4 7 5 2 3 1 6 4   7 5 2 3 1 6 4 7 5 1   4 2 8 3 5 9 6 7 1 4
                                        2 8 3 5 9 6 7 1 1 1   1 1 2 3 1 2 3 1 2 3   1 2 3 1 1 4 2 5 3 1   4 2 5 3 2 3 1 6 4 7
                                        5

 Eigenvalues of metric

         1 0.793E-04 0.229E-03 0.438E-03 0.515E-03 0.536E-03 0.536E-03 0.779E-03 0.109E-02


 OPERATOR DM      FOR CENTER  0  COORDINATES:    0.000000    0.000000    0.000000


 **********************************************************************************************************************************
 DATASETS  * FILE   NREC   LENGTH (MB)   RECORD NAMES
              1      18       29.11       500      610      700      900      950      970     1000      129      960     1100   
                                          VAR    BASINP    GEOM    SYMINP    ZMAT    AOBASIS   BASIS     P2S    ABASIS      S 
                                         1400     1410     1200     1210     1080     1600     1650     1700   
                                           T        V       H0       H01     AOSYM     SMH    MOLCAS    OPER   

 PROGRAMS   *        TOTAL       INT
 CPU TIMES  *         0.39      0.25
 REAL TIME  *         1.28 SEC
 DISK USED  *        29.42 MB (local),      235.32 MB (total)
 GA USED    *         0.00 MB       (max)       0.00 MB       (current)
 **********************************************************************************************************************************


 Program * Restricted Hartree-Fock

 Basis set VQZ-F12/JKFIT generated.      Number of basis functions:   218 
 Coulomb and exchange fitting
 Thresholds for fitting:       THRAO_COUL= 1.0D-15    THRAO_EXCH= 1.0D-13    THRMO= 1.0D-12    THRPROD= 1.0D-12    THRASM= 1.0D-12
                               THR2HLF=    1.0D-12

 Basis set VQZ-F12-JKFIT loaded. Number of basis functions: 218

 Orbital guess generated from atomic densities. Full valence occupancy:    6
 Using density fitting in orbital guess


 Initial occupancy:   5

 NELEC=   10   SYM=1   MS2= 0   THRE=1.0D-12   THRD=1.0D-06   THRG=1.0D-06  HFMA2=F  DIIS_START=2   DIIS_MAX=10   DIIS_INCORE=F

 Level shifts:    0.00 (CLOSED)    0.00 (OPEN)    0.30 (GAP_MIN)

 ITER           ETOT              DE          GRAD        DDIFF     DIIS  NEXP   TIME(IT)  TIME(TOT)  DIAG
   1     -100.04367595    -100.04367595     0.00D+00     0.52D-01     0     0       0.01      0.04    start
   2     -100.06388438      -0.02020843     0.80D-02     0.63D-02     1     0       0.01      0.05    diag
   3     -100.07031375      -0.00642937     0.49D-02     0.21D-02     2     0       0.01      0.06    diag
   4     -100.07043430      -0.00012055     0.47D-03     0.31D-03     3     0       0.02      0.08    diag
   5     -100.07045154      -0.00001724     0.14D-03     0.13D-03     4     0       0.01      0.09    diag
   6     -100.07045299      -0.00000144     0.33D-04     0.38D-04     5     0       0.01      0.10    diag
   7     -100.07045304      -0.00000005     0.59D-05     0.72D-05     6     0       0.01      0.11    diag
   8     -100.07045304      -0.00000000     0.64D-06     0.78D-06     7     0       0.01      0.12    fixocc
   9     -100.07045304      -0.00000000     0.71D-07     0.14D-06     8     0       0.01      0.13    diag
  10     -100.07045304       0.00000000     0.58D-08     0.11D-07     9     0       0.02      0.15    diag/orth
  11     -100.07045304      -0.00000000     0.28D-09     0.63D-09     0     0       0.01      0.16    diag

 Final occupancy:   5

 !RHF STATE 1.1 Energy               -100.070453039008
  RHF One-electron energy            -150.590658122088
  RHF Two-electron energy              45.331382899462
  RHF Kinetic energy                  100.023945761058
  RHF Nuclear energy                    5.188822183619
  RHF Virial quotient                  -1.000464961441

 !RHF STATE 1.1 Dipole moment           0.00000000     0.00000000    -0.75751885
 Dipole moment /Debye                   0.00000000     0.00000000    -1.92542086

 Orbital energies:

           1.1          2.1          3.1          4.1          5.1          6.1          7.1
    -26.294693    -1.600716    -0.767904    -0.650316    -0.650316     0.076628     0.126653


 HOMO      5.1    -0.650316 =     -17.6960eV
 LUMO      6.1     0.076628 =       2.0852eV
 LUMO-HOMO         0.726944 =      19.7812eV

 Orbitals saved in record  2100.2


 **********************************************************************************************************************************
 DATASETS  * FILE   NREC   LENGTH (MB)   RECORD NAMES
              1      18       29.11       500      610      700      900      950      970     1000      129      960     1100   
                                          VAR    BASINP    GEOM    SYMINP    ZMAT    AOBASIS   BASIS     P2S    ABASIS      S 
                                         1400     1410     1200     1210     1080     1600     1650     1700   
                                           T        V       H0       H01     AOSYM     SMH    MOLCAS    OPER   

              2       4        0.60       700     1000      520     2100   
                                         GEOM     BASIS   MCVARS     RHF  

 PROGRAMS   *        TOTAL     DF-HF       INT
 CPU TIMES  *         0.66      0.27      0.25
 REAL TIME  *         1.80 SEC
 DISK USED  *        30.78 MB (local),      246.28 MB (total)
 SF USED    *         1.21 MB
 GA USED    *         0.00 MB       (max)       0.00 MB       (current)
 **********************************************************************************************************************************


 PROGRAM * MP2 (Closed-shell)     Authors: C. Hampel, H.-J. Werner, 1991, M. Deegan, P.J. Knowles, 1992

                                   MP2-F12 implementation by H.-J. Werner, 2007

                   Density fitting integral evaluation by F.R. Manby, 2003,2007, G. Knizia, 2010


 Basis set CC-PVQZ-F12/OPTRI generated.  Number of basis functions:   136 
 Basis set CC-PVQZ-F12/CABS generated.   Number of basis functions:   257 
 Basis set VQZ-F12/MP2FIT generated.     Number of basis functions:   248 

 Convergence thresholds:  THRVAR = 1.00D-16  THRDEN = 1.00D-12

 Using ITF DF-MP2-F12 gradient implementation

 Number of core orbitals:           1 (   1 )
 Number of closed-shell orbitals:   4 (   4 )
 Number of external orbitals:     116 ( 116 )

 Molecular orbitals read from record     2100.2  Type=RHF/CANONICAL  
 Ansatz: F12/3*C(FIX,HY1)
 Enter DF-MP2-F12 [ITF]

 Geminal basis:    OPTFULL  GEM_TYPE=SLATER  BETA=1.0  NGEM=6

 Optimizing Gaussian exponents for each gem_beta

 Geminal optimization for beta= 1.0000
 Weight function:   m=0, omega= 1.4646

 Augmented Hessian optimization of geminal fit. Trust ratio= 0.40000
 Convergence reached after   2 iterations. Final gradient= 8.66D-16, Step= 4.23D-06, Delta= 1.28D-09

 Alpha:                 0.19532     0.81920     2.85917     9.50073    35.69989   197.79328
 Coeff:                 0.27070     0.30552     0.18297     0.10986     0.06810     0.04224


  SCS-MP2 correlation energy:           -0.29978266   (PS=  1.200000  PT=  0.333333)
  SCS-MP2 total energy               -100.370235699877

  Norm of first-order wave function     0.039084080325

  Reference energy                   -100.070453039008
  MP2 singlet pair energy              -0.191917529049
  MP2 triplet pair energy              -0.111666898944
  MP2 correlation energy               -0.303584427993
 !MP2 total energy                   -100.374037467001


  DF-MP2-F12 energy corrections:
  ==============================
  Approx.                                    Total
  DF-MP2-F12/3*C(DX,FIX):              -0.016789094200
  DF-MP2-F12/3*C(FIX):                 -0.015694223774

  DF-MP2-F12 correlation energies:
  ================================
  Approx.                                    Ecorr
  DF-MP2:                              -0.303584427993
  DF-MP2-F12/3*C(DX,FIX):              -0.320373522193
  DF-MP2-F12/3*C(FIX):                 -0.319278651767

  Reference energy                   -100.070453039008
  MP2-F12 correlation energy           -0.319278651767

 !MP2-F12 total energy               -100.389731690775


 ===============================================================
 One-body density matrix check:   DF-MP2-F12 energy corrections:
  DF-MP2-F12/3*C(FIX)(1rdm):           -0.015694223774
 ===============================================================

 Starting coupled-perturbed Hartree-Fock, convergence threshold= 1e-06

 ITER   MIC  DIIS         VAR       VAReC       VARec      CPU
    1           1    2.02e-02    3.96e-04    2.02e-02     0.01
    2           2    6.59e-03    2.78e-05    6.59e-03     0.02
    3           3    2.84e-03    2.48e-05    2.84e-03     0.03
    4           4    8.87e-04    1.19e-05    8.87e-04     0.04
    5           5    4.98e-05    2.35e-06    4.98e-05     0.05
    6           6    8.66e-06    2.38e-07    8.66e-06     0.06
    7                8.89e-07    2.28e-08    8.89e-07     0.07

 CPHF convergence reached in 7 macroiterations. Accuracy: 8.89e-07
  Timings in the CPHF solver


 Dipole moments (unrelaxed,MP2):       -0.00000000     0.00000000     0.01555287
 Dipole moments (unrelaxed,F12):       -0.00000000    -0.00000000     0.00000500

 CPHF solution written to record  8500.2

 Dipole moments (unrelaxed):           -0.00000000     0.00000000    -0.74196098
 Orbital relaxation contribution:       0.00000000     0.00000000     0.02750161
 ! STATE 1.1 Dipole moment              0.00000000     0.00000000    -0.71445937
 Dipole moment /Debye                   0.00000000     0.00000000    -1.81597458

 Number of N-1 electron functions:               4
 Number of N-2 electron functions:              10
 Number of singly external CSFs:               464
 Number of doubly external CSFs:            107880
 Total number of CSFs:                      108345

 DF-MP2-F12 gradient info saved on record        55555.1




 **********************************************************************************************************************************
 DATASETS  * FILE   NREC   LENGTH (MB)   RECORD NAMES
              1      19       29.45       500      610      700      900      950      970     1000      129      960     1100   
                                          VAR    BASINP    GEOM    SYMINP    ZMAT    AOBASIS   BASIS     P2S    ABASIS      S 
                                         1400     1410     1200     1210     1080     1600     1650     1700    55555   
                                           T        V       H0       H01     AOSYM     SMH    MOLCAS    OPER      MP2  

              2       6        1.06       700     1000      520     2100    57001     8500   
                                         GEOM     BASIS   MCVARS     RHF              CPHF   

 PROGRAMS   *        TOTAL   MP2-F12     DF-HF       INT
 CPU TIMES  *         6.79      6.13      0.27      0.25
 REAL TIME  *         9.45 SEC
 DISK USED  *        30.78 MB (local),      246.28 MB (total)
 SF USED    *         2.49 GB
 GA USED    *         0.00 MB       (max)       0.00 MB       (current)
 **********************************************************************************************************************************


 PROGRAM * HESSIAN

 *** Long output written to logfile /gpfs01/work/emmanous/6Frequencies/implementation/MOLPRO/G4-Tano-F12-v2/EXAMPLE_HF/hf.MP2F12.VQZF12.log ***


 Computing numerical hessian using default procedure for command DF-MP2-F12

 Symmetry elements for unique displacements: X  Y  

 Using no symmetry in wavefunction calculations

 Running default procedure: DF-HF-SCF000  DF-MP2-F12


 Numerically approximating hessian using central gradient differences

 Task list generated. Total number of displacements:      8

 All   8 tasks completed.  CPU=     23.86 sec, Elapsed=     57.65 sec.

 DF-MP2-F12 hessian saved to record  5300.2

 PROGRAM * FREQUENCIES (Calculation of harmonic vibrational spectra for DF-MP2-F12)


 Permanent Dipole Moment [debye]
   1-  3    0.000000    0.000000   -1.815975

 Dipole Moment Norm    1.8159746 [debye]

 Dipole Moment Derivatives [debye/ang]
              1             2             3             4             5             6
    1   -1.97845516    0.00000000    0.00000000    1.97845516    0.00000000    0.00000000
    2    0.00000000   -1.97845516    0.00000000    0.00000000    1.97845516    0.00000000
    3    0.00000000    0.00000000   -1.69243913    0.00000000    0.00000000    1.69243913

 Force Constants (Second Derivatives of the Energy) in [a.u.]
                             FX1         FY1         FZ1         HX2         HY2     
           FX1          -0.0005505
           FY1           0.0000000  -0.0005505
           FZ1           0.0000000   0.0000000   0.6229398
           HX2           0.0005505   0.0000000  -0.0000000  -0.0005505
           HY2           0.0000000   0.0005505  -0.0000000   0.0000000  -0.0005505
           HZ2           0.0000000  -0.0000000  -0.6229398  -0.0000000   0.0000000
                             HZ2     
           HZ2           0.6229398


 Atomic Masses
   1-  2   18.998400    1.007825

 Mass weighted Second Derivative Matrix
                             FX1         FY1         FZ1         HX2         HY2     
           FX1          -0.0000290
           FY1           0.0000000  -0.0000290
           FZ1           0.0000000   0.0000000   0.0327891
           HX2           0.0001258   0.0000000  -0.0000000  -0.0005462
           HY2           0.0000000   0.0001258  -0.0000000   0.0000000  -0.0005462
           HZ2           0.0000000  -0.0000000  -0.1423623  -0.0000000   0.0000000
                             HZ2     
           HZ2           0.6181031


 Mass Weighted 2nd Derivative Matrix Eigenvalues
   1-  6   -0.000575   -0.000575    0.000000    0.000000    0.000000    0.650892

 Mass Weighted 2nd Derivative Matrix Eigenvectors
              1             2             3             4             5             6
    1    0.00000000   -0.22444497    0.97448659   -0.00006616    0.00058074    0.00000000
    2   -0.22444469    0.00000000    0.00006282    0.97447069    0.00560749    0.00000000
    3    0.00000020    0.00000015   -0.00058108   -0.00560740    0.97447045   -0.22444503
    4    0.00000000    0.97448676    0.22444493   -0.00001524    0.00013360    0.00000000
    5    0.97448683    0.00000000    0.00001447    0.22444098    0.00129131    0.00000000
    6    0.00000005    0.00000003   -0.00013384   -0.00129150    0.22444127    0.97448675

 Imaginary Vibration  Wavenumber
        Nr             [1/cm] 
        1              123.29
        2              123.28

   Low Vibration      Wavenumber
        Nr             [1/cm] 
        1                0.00
        2                0.00
        3                0.00

     Vibration        Wavenumber
        Nr             [1/cm] 
        1             4147.24

 FREQUENCIES * CALCULATION OF NORMAL MODES FOR DF-MP2-F12


 Atomic Coordinates

  Nr  Atom  Charge       X              Y              Z

   1   F     9.00    0.000000000    0.000000000    0.175027984
   2   H     1.00    0.000000000    0.000000000   -1.559469689

 Normal Modes

                              1 A1 
 Wavenumbers [cm-1]         4147.24
 Intensities [km/mol]        126.47
 Intensities [relative]       73.18
           FX1              0.00000
           FY1             -0.00000
           FZ1             -0.05149
           HX2             -0.00000
           HY2              0.00000
           HZ2              0.97070


 Normal Modes of imaginary frequencies

                                  1           2
 Wavenumbers [cm-1]          123.29      123.28
 Intensities [km/mol]        172.82      172.82
 Intensities [relative]      100.00      100.00
           FX1             -0.00000    -0.05149
           FY1             -0.05149     0.00000
           FZ1              0.00000     0.00000
           HX2              0.00000     0.97070
           HY2              0.97070    -0.00000
           HZ2              0.00000     0.00000


 Normal Modes of low/zero frequencies

                                  1           2           3
 Wavenumbers [cm-1]            0.00        0.00        0.00
 Intensities [km/mol]          0.00        0.00        0.00
 Intensities [relative]        0.00        0.00        0.00
           FX1              0.22357    -0.00002     0.00013
           FY1              0.00001     0.22357     0.00129
           FZ1             -0.00013    -0.00129     0.22357
           HX2              0.22357    -0.00002     0.00013
           HY2              0.00001     0.22357     0.00129
           HZ2             -0.00013    -0.00129     0.22357


 Frequencies dumped to record   5400.2

 Zero point energy:  0.00944810 [H]     2073.62 [1/CM]       24.81 [KJ/MOL]
 Frequency information read from record  5400.2

 Recomputing wavefunction at initial geometry


 **********************************************************************************************************************************
 DATASETS  * FILE   NREC   LENGTH (MB)   RECORD NAMES
              1      19       29.45       500      610      700      900      950      970     1000      129      960     1100   
                                          VAR    BASINP    GEOM    SYMINP    ZMAT    AOBASIS   BASIS     P2S    ABASIS      S 
                                         1400     1410     1200     1210     1080     1600     1650     1700    55555   
                                           T        V       H0       H01     AOSYM     SMH    MOLCAS    OPER      MP2  

              2       9        1.06       700     1000      520     2100    57001     8500     5300     5450     5400   
                                         GEOM     BASIS   MCVARS     RHF              CPHF     HESS     NMOD     FREQ   

 PROGRAMS   *        TOTAL      FREQ   MP2-F12     DF-HF       INT
 CPU TIMES  *        34.00     27.18      6.13      0.27      0.25
 REAL TIME  *        75.79 SEC
 DISK USED  *         2.52 GB (local),       20.13 GB (total)
 SF USED    *         2.49 GB
 GA USED    *         0.00 MB       (max)       0.00 MB       (current)
 **********************************************************************************************************************************

 DF-MP2-F12/cc-pVQZ-F12 energy=   -100.389731691056

      DF-MP2-F12           DF-HF
   -100.38973169   -100.07045304
 **********************************************************************************************************************************
 Molpro calculation terminated
