
Host: cff142

Timers On : Sat Aug 12 08:08:42 2023
Timers Off: Sat Aug 12 08:08:54 2023

Wall Time:       12.51 seconds

                                                       Time (seconds)
Module                                       User      System        Wall        Calls

--------------------------------------------------------------------------------------

**************************************************************************************
