
Host: cff155

Timers On : Sat Aug 12 10:03:58 2023
Timers Off: Sat Aug 12 10:04:02 2023

Wall Time:        3.81 seconds

                                                       Time (seconds)
Module                                       User      System        Wall        Calls

--------------------------------------------------------------------------------------

**************************************************************************************
