
 Working directory              : /scratch/emmanous/hf.MP2.anopV5Z.com.33346/molpro.G7TUQdQxEF/
 Global scratch directory       : /scratch/emmanous/hf.MP2.anopV5Z.com.33346/molpro.G7TUQdQxEF/
 Wavefunction directory         : /home/emmanous/wfu/
 Main file repository           : /scratch/emmanous/hf.MP2.anopV5Z.com.33346/molpro.G7TUQdQxEF/

 id        : wis

 Nodes     nprocs
 cff051       8
 GA implementation: MPI file
 GA implementation (serial work in mppx): MPI file

 Using DEFAULT tuning parameter for ncache   :   16384
 Using DEFAULT tuning parameter for mflopdgm :   10000
 Using DEFAULT tuning parameter for mflopdgv :    4000
 Using DEFAULT tuning parameter for mflopmxm :    5000
 Using DEFAULT tuning parameter for mflopmxv :    4000
 Using DEFAULT tuning parameter for mindgm   :       1
 Using DEFAULT tuning parameter for mindgc   :       4
 Using DEFAULT tuning parameter for mindgf   :    5000
 Using DEFAULT tuning parameter for mindgl   :       4
 Using DEFAULT tuning parameter for mindgr   :       1
 Using DEFAULT tuning parameter for mindgv   :      20
 Using DEFAULT tuning parameter for mincuda  :     500
 Using DEFAULT tuning parameter for mxmblk   :      64
 Using DEFAULT tuning parameter for mxmbln   :      64
 Using DEFAULT tuning parameter for nroll    :       2
 Using custom tuning parameter for ngpus     :       0
 Using customized tuning parameters: mindgm=1; mindgv=20; mindgc=4; mindgr=1; noblas=0; minvec=7

 Fortran compiler: integer size=8, double size=8, logical size=8
 default implementation of scratch files=sf  


 Variables initialized (1015), CPU time= 0.00 sec
 gthresh,energy=1d-12,gradient=1d-6,twoint=1d-18,prefac=1d-20
 noorient
 charge=0
 multiplicity=1
 geomtyp=xyz
 geom={
  F          0.0000000000        0.0000000000        0.0927702149
  H          0.0000000000        0.0000000000       -0.8253852149
 }
 MASS,ISO
 MASS,PRINT
 
 basis={
 Including file /gpfs01/work/emmanous/6Frequencies/implementation/MOLPRO/G4-Tano-v2/EXAMPLE_HF/ano-pV5Z.mbas
 }
 hf
 mp2
 {freq,analytic,print=3;noproject}
 
 Commands initialized (834), CPU time= 0.01 sec, 672 directives.
 Default parameters read. Elapsed time= 0.07 sec

 Using DEFAULT tuning parameter for mpplat   :       3
 Using DEFAULT tuning parameter for mppspeed :    1600
 Checking input...
 Passed
1


                                         ***  PROGRAM SYSTEM MOLPRO  ***
                                       Copyright, TTI GmbH Stuttgart, 2015
                                    Version 2022.2 linked Thu May  5 23:39:45 2022


 **********************************************************************************************************************************
 LABEL *                                                                                 
  64 bit mpp version                                                                     DATE: 12-Aug-23          TIME: 08:07:08  
 **********************************************************************************************************************************

 SHA1:             518bf5c5e315925380b88506c70af759aa1d1d96
 **********************************************************************************************************************************

 Memory per process:      1500 MW
 Total memory per node:  12000 MW

 GA preallocation disabled
 GA check disabled

 Variable memory set to 1500.0 MW


 THRESHOLDS:

 ZERO    =  1.00D-12  ONEINT  =  1.00D-12  TWOINT  =  1.00D-18  PREFAC  =  1.00D-20  XXXXXX  =  1.00D-09  EORDER  =  1.00D-04
 ENERGY  =  1.00D-12  ETEST   =  0.00D+00  EDENS   =  0.00D+00  THRDEDEF=  1.00D-06  GRADIENT=  1.00D-06  STEP    =  1.00D-03
 ORBITAL =  1.00D-05  CIVEC   =  1.00D-05  COEFF   =  1.00D-04  PRINTCI =  5.00D-02  PUNCHCI =  9.90D+01  OPTGRAD =  3.00D-04
 OPTENERG=  1.00D-06  OPTSTEP =  3.00D-04  THRGRAD =  1.00D-10  COMPRESS=  1.00D-11  VARMIN  =  1.00D-07  VARMAX  =  1.00D-03
 THRDOUB =  0.00D+00  THRDIV  =  1.00D-05  THRRED  =  1.00D-07  THRPSP  =  1.00D+00  THRDC   =  1.00D-10  THRCS   =  1.00D-10
 THRNRM  =  1.00D-08  THREQ   =  0.00D+00  THRDE   =  1.00D+00  THRREF  =  1.00D-05  SPARFAC =  1.00D+00  THRDLP  =  1.00D-07
 THRDIA  =  1.00D-10  THRDLS  =  1.00D-07  THRGPS  =  0.00D+00  THRKEX  =  0.00D+00  THRDIS  =  2.00D-01  THRVAR  =  1.00D-10
 THRLOC  =  1.00D-06  THRGAP  =  1.00D-06  THRLOCT = -1.00D+00  THRGAPT = -1.00D+00  THRORB  =  1.00D-06  THRMLTP =  0.00D+00
 THRCPQCI=  1.00D-10  KEXTA   =  0.00D+00  THRCOARS=  0.00D+00  SYMTOL  =  1.00D-06  GRADTOL =  1.00D-06  THROVL  =  1.00D-08
 THRORTH =  1.00D-08  THRDLOVL= -1.00D+00  GRID    =  1.00D-06  GRIDMAX =  1.00D-03  DTMAX   =  0.00D+00  THROCCDE=  1.00D-01
 THROCCDE=  1.00D-01  THRPRINT=  2.50D-01

 SETTING CHARGE         =      0.0000000D+00                                  
 SETTING MULTIPLICITY   =         1.00000000                                  
 SETTING GEOMTYP        =    XYZ


 Using masses of most abundant isotopes

 **********************************************************************************************************************************


 Atomic masses

 Center       Mass
 F         18.99840
 H          1.00782
 SETTING BASIS          =    USERDEF


 Recomputing integrals since basis changed


 Using spherical harmonics



 PROGRAM * SEWARD (Integral evaluation for generally contracted gaussian basis sets)     Author: Roland Lindh, 1990

 Geometry written to block  1 of record 700


 Point group  C2v 



 ATOMIC COORDINATES

 NR  ATOM    CHARGE       X              Y              Z

   1  F       9.00    0.000000000    0.000000000    0.175310299
   2  H       1.00    0.000000000    0.000000000   -1.559752003

 Bond lengths in Bohr (Angstrom)

 1-2  1.735062302
     ( 0.918155430)

 NUCLEAR CHARGE:                   10
 NUMBER OF PRIMITIVE AOS:         283
 NUMBER OF SYMMETRY AOS:          215
 NUMBER OF CONTRACTIONS:          121   (   47A1  +   29B1  +   29B2  +   16A2  )
 NUMBER OF INNER CORE ORBITALS:     0   (    0A1  +    0B1  +    0B2  +    0A2  )
 NUMBER OF OUTER CORE ORBITALS:     1   (    1A1  +    0B1  +    0B2  +    0A2  )
 NUMBER OF VALENCE ORBITALS:        5   (    3A1  +    1B1  +    1B2  +    0A2  )


 NUCLEAR REPULSION ENERGY    5.18713362

 EXTRA SYMMETRY OF AOS IN SYMMETRY 1:   1 1 1 1 1 1 1 1 1 1   1 1 2 1 2 1 2 1 2 1   2 1 2 1 2 1 3 2 1 3   2 2 3 1 1 1 1 1 1 1
                                        1 1 2 1 2 1 2
 EXTRA SYMMETRY OF AOS IN SYMMETRY 2:   1 1 1 1 1 1 1 1 1 1   2 1 2 1 2 1 2 1 2 1   2 3 1 1 1 1 1 1 2
 EXTRA SYMMETRY OF AOS IN SYMMETRY 3:   1 1 1 1 1 1 1 1 1 1   2 1 2 1 2 1 2 1 2 1   2 3 1 1 1 1 1 1 2
 EXTRA SYMMETRY OF AOS IN SYMMETRY 4:   1 1 1 1 1 1 1 1 2 1   2 2 1 1 1 1

 Eigenvalues of metric

         1 0.212E-03 0.150E-02 0.443E-02 0.475E-01 0.767E-01 0.111E+00 0.154E+00 0.468E+00
         2 0.757E-03 0.553E-01 0.109E+00 0.432E+00 0.501E+00 0.679E+00 0.834E+00 0.100E+01
         3 0.757E-03 0.553E-01 0.109E+00 0.432E+00 0.501E+00 0.679E+00 0.834E+00 0.100E+01
         4 0.475E-01 0.468E+00 0.736E+00 0.100E+01 0.100E+01 0.100E+01 0.100E+01 0.100E+01


 Contracted 2-electron integrals neglected if value below      1.0D-18
 AO integral compression algorithm  1   Integral accuracy      1.0D-18

     51.642 MB (compressed) written to integral file ( 82.6%)

     Node minimum: 5.243 MB, node maximum: 8.651 MB


 NUMBER OF SORTED TWO-ELECTRON INTEGRALS:     880074.     BUFFER LENGTH:  32768
 NUMBER OF SEGMENTS:   1  SEGMENT LENGTH:     880074      RECORD LENGTH: 524288

 Memory used in sort:       1.44 MW

 SORT1 READ     7752462. AND WROTE      661733. INTEGRALS IN      2 RECORDS. CPU TIME:     0.11 SEC, REAL TIME:     0.12 SEC
 SORT2 READ     5306994. AND WROTE     7059967. INTEGRALS IN    168 RECORDS. CPU TIME:     0.02 SEC, REAL TIME:     0.02 SEC

 Node minimum:      879010.  Node maximum:      887687. integrals

 OPERATOR DM      FOR CENTER  0  COORDINATES:    0.000000    0.000000    0.000000


 **********************************************************************************************************************************
 DATASETS  * FILE   NREC   LENGTH (MB)   RECORD NAMES
              1      18       29.16       500      610      700      900      950      970     1000      129      960     1100   
                                          VAR    BASINP    GEOM    SYMINP    ZMAT    AOBASIS   BASIS     P2S    ABASIS      S 
                                         1400     1410     1200     1210     1080     1600     1650     1700   
                                           T        V       H0       H01     AOSYM     SMH    MOLCAS    OPER   

 PROGRAMS   *        TOTAL       INT
 CPU TIMES  *         1.13      0.99
 REAL TIME  *         2.03 SEC
 DISK USED  *        29.48 MB (local),      337.99 MB (total)
 GA USED    *         0.00 MB       (max)       0.00 MB       (current)
 **********************************************************************************************************************************


 Program * Restricted Hartree-Fock

 Orbital guess generated from atomic densities.

 Initial occupancy:   3   1   1   0

 NELEC=   10   SYM=1   MS2= 0   THRE=1.0D-12   THRD=1.0D-06   THRG=1.0D-06  HFMA2=F  DIIS_START=2   DIIS_MAX=10   DIIS_INCORE=F

 Level shifts:    0.00 (CLOSED)    0.00 (OPEN)    0.30 (GAP_MIN)

 ITER           ETOT              DE          GRAD        DDIFF     DIIS  NEXP   TIME(IT)  TIME(TOT)  DIAG
   1     -100.04333820    -100.04333820     0.00D+00     0.90D-01     0     0       0.01      0.01    start
   2     -100.06374408      -0.02040589     0.14D-01     0.48D-02     1     0       0.00      0.01    diag
   3     -100.07030656      -0.00656247     0.87D-02     0.15D-02     2     0       0.00      0.01    diag
   4     -100.07042451      -0.00011796     0.81D-03     0.23D-03     3     0       0.01      0.02    diag
   5     -100.07044158      -0.00001706     0.25D-03     0.10D-03     4     0       0.00      0.02    diag
   6     -100.07044298      -0.00000140     0.57D-04     0.39D-04     5     0       0.01      0.03    diag
   7     -100.07044303      -0.00000005     0.10D-04     0.94D-05     6     0       0.00      0.03    diag
   8     -100.07044303      -0.00000000     0.11D-05     0.87D-06     7     0       0.00      0.03    fixocc
   9     -100.07044303      -0.00000000     0.11D-06     0.11D-06     8     0       0.01      0.04    diag
  10     -100.07044303      -0.00000000     0.72D-08     0.72D-08     9     0       0.00      0.04    diag/orth
  11     -100.07044303       0.00000000     0.46D-09     0.42D-09     0     0       0.00      0.04    diag

 Final occupancy:   3   1   1   0

 !RHF STATE 1.1 Energy               -100.070443026182
  RHF One-electron energy            -150.590744997448
  RHF Two-electron energy              45.333168351455
  RHF Kinetic energy                  100.032019439109
  RHF Nuclear energy                    5.187133619810
  RHF Virial quotient                  -1.000384112880

 !RHF STATE 1.1 Dipole moment           0.00000000     0.00000000    -0.76090154
 Dipole moment /Debye                   0.00000000     0.00000000    -1.93401880

 Orbital energies:

           1.1          2.1          3.1          4.1          5.1
    -26.294194    -1.600333    -0.767493     0.154469     0.417843

           1.2          2.2          3.2
     -0.650092     0.460017     0.658866

           1.3          2.3          3.3
     -0.650092     0.460017     0.658866

           1.4          2.4
      1.127374     1.771078


 HOMO      1.3    -0.650092 =     -17.6899eV
 LUMO      4.1     0.154469 =       4.2033eV
 LUMO-HOMO         0.804560 =      21.8932eV

 Orbitals saved in record  2100.2


 **********************************************************************************************************************************
 DATASETS  * FILE   NREC   LENGTH (MB)   RECORD NAMES
              1      18       29.17       500      610      700      900      950      970     1000      129      960     1100   
                                          VAR    BASINP    GEOM    SYMINP    ZMAT    AOBASIS   BASIS     P2S    ABASIS      S 
                                         1400     1410     1200     1210     1080     1600     1650     1700   
                                           T        V       H0       H01     AOSYM     SMH    MOLCAS    OPER   

              2       4        0.45       700     1000      520     2100   
                                         GEOM     BASIS   MCVARS     RHF  

 PROGRAMS   *        TOTAL    HF-SCF       INT
 CPU TIMES  *         1.19      0.06      0.99
 REAL TIME  *         2.41 SEC
 DISK USED  *        29.97 MB (local),      341.94 MB (total)
 GA USED    *         0.00 MB       (max)       0.00 MB       (current)
 **********************************************************************************************************************************


 PROGRAM * MP2 (Closed-shell)     Authors: C. Hampel, H.-J. Werner, 1991, M. Deegan, P.J. Knowles, 1992


 Convergence thresholds:  THRVAR = 1.00D-16  THRDEN = 1.00D-12

 Number of core orbitals:           1 (   1   0   0   0 )
 Number of closed-shell orbitals:   4 (   2   1   1   0 )
 Number of external orbitals:     116 (  44  28  28  16 )

 Molecular orbitals read from record     2100.2  Type=RHF/CANONICAL  

 Number of N-1 electron functions:               4
 Number of N-2 electron functions:              10
 Number of singly external CSFs:               144
 Number of doubly external CSFs:             27928
 Total number of CSFs:                       28073

 Length of J-op  integral file:               0.00 MB
 Length of K-op  integral file:               0.28 MB

 Integral transformation finished. Total CPU:   0.01 sec, npass=  1  Memory used:   0.11 MW

 Memory needed for MP2:                      0.02 MW

 SCS-MP2 correlation energy:           -0.305637888074   (PS=  1.200000  PT=  0.333333)
 SCS-MP2 total energy:               -100.376080914256


  Reference energy                   -100.070443026182
  MP2 singlet pair energy              -0.196615595924
  MP2 triplet pair energy              -0.112016527980
  MP2 correlation energy               -0.308632123904

 !MP2 total energy                   -100.379075150086

 KEXT needed  1 integral passes. Memory used:   0.21 MW  CPU time:      0.01 sec

 CPHF start vector      0.2 not found

 Starting Coupled-perturbed Hartree-Fock, convergence threshold= 1.0D-06

 ITER   MIC  DIIS      VAR         VARC       CPU
   1     0     1    0.20D-01    0.78D-03     0.01
   2     5     2    0.36D-03    0.51D-04     0.01
   3     4     3    0.89D-05    0.86D-06     0.01
   4     2     4    0.56D-06    0.84D-07     0.01

 CPHF convergence reached in  4 macroiterations and   11 microiterations.   Accuracy: 5.5735D-07

 CPHF solution written to record  4100.2

 Dipole moments (unrelaxed):            0.00000000     0.00000000    -0.74559457
 Orbital relaxation contribution:      -0.00000000    -0.00000000     0.02672441
 !MP2 STATE 1.1 Dipole moment           0.00000000     0.00000000    -0.71887017
 Dipole moment /Debye                   0.00000000     0.00000000    -1.82718571

 CPU-time for density and lagrangian:                  0.00 sec
 CPU-time for coupled-perturbed hartree-fock:          0.02 sec

 MP2 gradient info saved on record         5200.1


 **********************************************************************************************************************************
 DATASETS  * FILE   NREC   LENGTH (MB)   RECORD NAMES
              1      20       30.04       500      610      700      900      950      970     1000      129      960     1100   
                                          VAR    BASINP    GEOM    SYMINP    ZMAT    AOBASIS   BASIS     P2S    ABASIS      S 
                                         1400     1410     1200     1210     1080     1600     1650     1700     1380     5200   
                                           T        V       H0       H01     AOSYM     SMH    MOLCAS    OPER     JKOP      MP2  

              2       5        0.64       700     1000      520     2100     4100   
                                         GEOM     BASIS   MCVARS     RHF     CPHF   

 PROGRAMS   *        TOTAL       MP2    HF-SCF       INT
 CPU TIMES  *         1.35      0.16      0.06      0.99
 REAL TIME  *         2.58 SEC
 DISK USED  *        30.76 MB (local),      348.23 MB (total)
 SF USED    *         1.99 MB
 GA USED    *         0.00 MB       (max)       0.00 MB       (current)
 **********************************************************************************************************************************


 PROGRAM * HESSIAN

 *** Long output written to logfile /gpfs01/work/emmanous/6Frequencies/implementation/MOLPRO/G4-Tano-v2/EXAMPLE_HF/hf.MP2.anopV5Z.log ***


 Computing numerical hessian using default procedure for command MP2

 Symmetry elements for unique displacements: X  Y  

 Using AUTO symmetry option

 Running default procedure: HF-SCF000  MP2


 Numerically approximating hessian using central gradient differences

 Task list generated. Total number of displacements:      8

 All   8 tasks completed.  CPU=     22.80 sec, Elapsed=     23.07 sec.

 MP2 hessian saved to record  5300.2

 PROGRAM * FREQUENCIES (Calculation of harmonic vibrational spectra for MP2)


 Permanent Dipole Moment [debye]
   1-  3    0.000000    0.000000   -1.827186

 Dipole Moment Norm    1.8271857 [debye]

 Dipole Moment Derivatives [debye/ang]
              1             2             3             4             5             6
    1   -1.98998448    0.00000000    0.00000000    1.98998155    0.00000000    0.00000000
    2    0.00000000   -1.98998448    0.00000000    0.00000000    1.98998155    0.00000000
    3    0.00000000    0.00000000   -1.69624507    0.00000000    0.00000000    1.69624507

 Force Constants (Second Derivatives of the Energy) in [a.u.]
                             FX1         FY1         FZ1         HX2         HY2     
           FX1          -0.0005510
           FY1           0.0000000  -0.0005510
           FZ1           0.0000000   0.0000000   0.6215360
           HX2           0.0005511   0.0000000   0.0000000  -0.0005512
           HY2           0.0000000   0.0005511   0.0000000   0.0000000  -0.0005512
           HZ2           0.0000000   0.0000000  -0.6215360   0.0000000   0.0000000
                             HZ2     
           HZ2           0.6215360


 Atomic Masses
   1-  2   18.998400    1.007825

 Mass weighted Second Derivative Matrix
                             FX1         FY1         FZ1         HX2         HY2     
           FX1          -0.0000290
           FY1           0.0000000  -0.0000290
           FZ1           0.0000000   0.0000000   0.0327152
           HX2           0.0001260   0.0000000   0.0000000  -0.0005470
           HY2           0.0000000   0.0001260   0.0000000   0.0000000  -0.0005470
           HZ2           0.0000000   0.0000000  -0.1420415   0.0000000   0.0000000
                             HZ2     
           HZ2           0.6167103


 Mass Weighted 2nd Derivative Matrix Eigenvalues
   1-  6   -0.000576   -0.000576    0.000000    0.000000    0.000000    0.649425

 Mass Weighted 2nd Derivative Matrix Eigenvectors
              1             2             3             4             5             6
    1    0.00000000   -0.22440357    0.00000000    0.00000000    0.97449630    0.00000000
    2   -0.22440356    0.00000000   -0.00001196    0.97449630    0.00000000    0.00000000
    3    0.00000000    0.00000000    0.97448675    0.00001196    0.00000000   -0.22444503
    4    0.00000000    0.97449630    0.00000000    0.00000000    0.22440357    0.00000000
    5    0.97449630    0.00000000   -0.00000275    0.22440356    0.00000000    0.00000000
    6    0.00000000    0.00000000    0.22444503    0.00000275    0.00000000    0.97448675

 Imaginary Vibration  Wavenumber
        Nr             [1/cm] 
        1              123.37
        2              123.37

   Low Vibration      Wavenumber
        Nr             [1/cm] 
        1                0.00
        2                0.01
        3                0.01

     Vibration        Wavenumber
        Nr             [1/cm] 
        1             4142.56

 FREQUENCIES * CALCULATION OF NORMAL MODES FOR MP2


 Atomic Coordinates

  Nr  Atom  Charge       X              Y              Z

   1   F     9.00    0.000000000    0.000000000    0.175310299
   2   H     1.00    0.000000000    0.000000000   -1.559752003

 Normal Modes

                              1 A1 
 Wavenumbers [cm-1]         4142.56
 Intensities [km/mol]        127.04
 Intensities [relative]       72.66
           FX1             -0.00000
           FY1              0.00000
           FZ1             -0.05149
           HX2             -0.00000
           HY2              0.00000
           HZ2              0.97070


 Normal Modes of imaginary frequencies

                                  1           2
 Wavenumbers [cm-1]          123.37      123.37
 Intensities [km/mol]        174.84      174.84
 Intensities [relative]      100.00      100.00
           FX1              0.00000    -0.05148
           FY1             -0.05148    -0.00000
           FZ1              0.00000    -0.00000
           HX2              0.00000     0.97071
           HY2              0.97071    -0.00000
           HZ2              0.00000    -0.00000


 Normal Modes of low/zero frequencies

                                  1           2           3
 Wavenumbers [cm-1]            0.00        0.01        0.01
 Intensities [km/mol]          0.00        0.00        0.00
 Intensities [relative]        0.00        0.00        0.00
           FX1             -0.00000    -0.00000     0.22357
           FY1             -0.00000     0.22357    -0.00000
           FZ1              0.22357     0.00000    -0.00000
           HX2             -0.00000    -0.00000     0.22353
           HY2             -0.00000     0.22353    -0.00000
           HZ2              0.22357     0.00000    -0.00000


 Frequencies dumped to record   5400.2

 Zero point energy:  0.00943745 [H]     2071.28 [1/CM]       24.78 [KJ/MOL]
 Frequency information read from record  5400.2

 Recomputing wavefunction at initial geometry


 **********************************************************************************************************************************
 DATASETS  * FILE   NREC   LENGTH (MB)   RECORD NAMES
              1      20       30.04       500      610      700      900      950      970     1000      129      960     1100   
                                          VAR    BASINP    GEOM    SYMINP    ZMAT    AOBASIS   BASIS     P2S    ABASIS      S 
                                         1400     1410     1200     1210     1080     1600     1650     1700     1380     5200   
                                           T        V       H0       H01     AOSYM     SMH    MOLCAS    OPER     JKOP      MP2  

              2       8        0.73       700     1000      520     2100     4100     5300     5450     5400   
                                         GEOM     BASIS   MCVARS     RHF     CPHF     HESS     NMOD     FREQ   

 PROGRAMS   *        TOTAL      FREQ       MP2    HF-SCF       INT
 CPU TIMES  *        26.44     25.09      0.16      0.06      0.99
 REAL TIME  *        29.29 SEC
 DISK USED  *       251.56 MB (local),        1.64 GB (total)
 SF USED    *         2.16 MB
 GA USED    *         0.00 MB       (max)       0.00 MB       (current)
 **********************************************************************************************************************************

 MP2/USERDEF energy=   -100.379075150392

             MP2          HF-SCF
   -100.37907515   -100.07044303
 **********************************************************************************************************************************
 Molpro calculation terminated
