
Host: cff051

Timers On : Sat Aug 12 08:08:05 2023
Timers Off: Sat Aug 12 08:08:08 2023

Wall Time:        2.57 seconds

                                                       Time (seconds)
Module                                       User      System        Wall        Calls

--------------------------------------------------------------------------------------

**************************************************************************************
